12960
 Atoms. Timestep: 271270
Te         0.184903       21.0266       59.8319
Te         20.3722       17.9683       0.252438
Te         40.7232       18.1651       60.0308
Te         61.6608       40.1248       0.91457
Te         20.7218       41.7703       0.329984
Te         38.8469       40.2273       60.4273
Te         60.607       -0.0339173       61.5172
Te         21.8853       1.78451       1.77626
Te         40.1159       61.4468       1.43878
Te         61.3726       25.3564       19.9208
Te         20.8432       19.0831       19.1431
Te         40.8277       18.0858       20.4781
Te         62.0092       41.108       19.0723
Te         20.7865       41.4421       20.7512
Te         39.5123       38.108       14.7417
Te         2.48337       61.2441       22.7686
Te         20.4785       58.96       21.9998
Te         43.7518       58.4304       22.9664
Te         61.3111       19.9407       41.909
Te         17.6831       19.543       39.0609
Te         40.8324       19.5622       38.4998
Te         60.8071       40.1026       42.862
Te         19.7382       38.5594       41.6753
Te         39.5375       41.3681       39.3443
Te         60.4546       0.476853       41.1338
Te         22.307       59.7286       43.8775
Te         39.0178       1.33244       41.2467
Te         15.088       14.8064       10.6701
Te         41.0609       16.8589       7.75379
Te         58.3163       17.9287       12.7793
Te         18.432       38.219       5.48297
Te         35.2472       40.5568       9.54209
Te         59.3427       40.9138       9.17627
Te         13.0484       1.22484       13.5775
Te         38.0709       56.0359       13.251
Te         58.33       60.5401       8.53323
Te         17.1823       18.3514       30.6374
Te         37.2446       17.2141       28.5141
Te         56.775       18.5183       32.835
Te         16.3165       37.2692       33.0968
Te         40.8512       39.8371       28.1512
Te         57.9587       41.0126       30.6285
Te         14.5122       55.9268       29.7668
Te         37.0765       57.88       33.9934
Te         61.7659       62.0322       32.4088
Te         14.4844       18.3771       55.7054
Te         37.4576       15.5917       50.3964
Te         58.6475       15.8641       54.5981
Te         16.0753       37.5854       53.5094
Te         36.341       38.7972       52.2764
Te         58.3252       36.2384       51.9083
Te         16.4947       57.4549       52.3603
Te         39.7433       59.5487       51.7436
Te         59.1291       60.4792       50.0171
Te         5.39984       4.05595       17.9808
Te         24.3389       1.92893       16.3345
Te         46.0843       2.05803       22.8528
Te         4.85676       25.019       19.0974
Te         28.9809       21.1071       18.8492
Te         45.2674       23.3103       16.1495
Te         5.66019       43.3937       18.2099
Te         26.2092       47.5089       17.9316
Te         48.0449       50.2108       21.048
Te         3.4061       6.81399       37.5706
Te         23.9123       4.76953       37.8156
Te         47.396       3.97577       42.8467
Te         8.78149       26.0643       38.9363
Te         22.8899       25.7892       38.1032
Te         47.7051       26.6168       38.975
Te         4.89143       49.6548       37.8913
Te         25.1868       41.546       38.9919
Te         46.117       43.8222       38.3007
Te         6.73169       6.08491       56.4508
Te         26.6094       4.83798       54.3931
Te         46.7802       4.97932       57.8762
Te         3.78136       25.0281       55.5073
Te         26.8613       22.4676       55.9103
Te         47.1016       24.8525       59.7884
Te         4.22463       46.5142       56.0911
Te         25.3765       46.5338       56.198
Te         48.7785       45.2041       59.6623
Te         21.5498       8.26714       2.79631
Te         43.8823       8.2813       1.57349
Te         61.0763       3.6326       -0.153196
Te         16.8696       26.5114       61.4071
Te         39.3297       30.2753       60.8973
Te         58.4766       21.9077       0.0368332
Te         16.1141       46.5087       61.2509
Te         38.4048       44.1077       5.47401
Te         60.0477       45.6372       61.7272
Te         19.1975       4.15659       23.1747
Te         42.7911       3.72985       22.8619
Te         61.6224       4.44952       24.7683
Te         20.4452       26.744       17.858
Te         42.3244       27.772       24.3707
Te         1.36663       27.1057       24.2337
Te         17.4699       49.6627       20.0651
Te         37.6225       48.661       21.4679
Te         0.328435       41.4389       22.5945
Te         17.557       5.99217       39.2998
Te         40.278       5.76376       41.3784
Te         59.2936       9.25725       45.3805
Te         19.4439       26.4616       44.6573
Te         39.5105       25.883       42.5498
Te         1.33598       26.5246       43.1258
Te         18.3229       50.6857       42.989
Te         39.3552       49.5951       45.993
Te         57.7254       46.6463       42.6141
Te         1.42502       13.863       9.2753
Te         22.1191       21.8649       8.04858
Te         44.597       19.6712       2.47457
Te         3.50151       41.3782       9.19124
Te         27.0372       45.7654       4.92274
Te         43.6353       41.9454       5.80218
Te         61.2581       57.1238       7.66729
Te         22.6729       61.5852       8.1964
Te         43.0239       61.3       9.03587
Te         2.07103       21.1457       26.2724
Te         21.7594       19.6014       25.4773
Te         42.3253       21.5977       30.9451
Te         1.38463       38.2438       25.2344
Te         20.9458       45.0927       26.52
Te         44.8696       38.1886       27.9507
Te         1.65496       59.7866       30.0661
Te         23.1085       62.1506       27.9714
Te         44.8336       60.0544       33.5553
Te         2.79755       15.5948       54.9986
Te         22.5521       21.1364       46.957
Te         40.7764       17.089       50.0376
Te         3.46129       42.8501       50.5177
Te         22.8909       34.6157       47.8052
Te         44.2984       40.0153       49.5766
Te         0.307501       0.95113       48.1146
Te         24.6131       60.0093       47.0265
Te         40.5049       1.32524       52.876
Te         4.34046       -0.216397       13.113
Te         29.5771       4.42871       7.72075
Te         51.5293       0.776735       13.6977
Te         5.65154       19.9183       12.7405
Te         27.2649       21.5587       7.75369
Te         49.6342       28.2207       10.3574
Te         9.09547       38.8292       11.7329
Te         27.5997       43.9333       8.7506
Te         47.1006       40.6314       13.3795
Te         6.53791       1.32037       31.8321
Te         26.7791       1.16003       30.5292
Te         48.3422       0.046515       32.5526
Te         7.84838       23.1928       32.6731
Te         25.223       22.0259       34.7275
Te         47.822       19.807       34.9709
Te         5.42619       39.1235       33.0617
Te         23.9849       41.3513       33.2246
Te         46.1297       40.0544       31.2513
Te         5.7863       2.12699       54.3927
Te         29.8218       61.1919       50.5269
Te         44.926       1.19982       53.1241
Te         5.48667       20.7324       53.2693
Te         27.8382       20.725       49.5074
Te         46.7689       21.4033       53.0702
Te         5.55277       44.491       52.9993
Te         28.0843       40.8773       49.0799
Te         47.1657       42.3342       52.4134
Te         11.8836       11.5095       60.4729
Te         28.5815       10.9914       1.50536
Te         48.7533       13.0043       61.3075
Te         6.61508       26.9784       2.96351
Te         26.8613       31.1894       5.30584
Te         48.4592       31.531       1.20682
Te         7.1463       49.3452       0.687936
Te         24.1979       57.3602       60.4386
Te         47.7684       52.9294       4.35355
Te         2.70766       13.7812       20.7518
Te         25.2194       9.53156       19.0832
Te         49.8205       10.1134       22.1317
Te         5.46488       31.6237       19.7413
Te         29.8733       28.0342       18.1947
Te         47.0672       30.6003       22.2815
Te         4.3606       53.4946       20.7228
Te         26.9755       54.4759       21.2056
Te         44.7355       57.4776       26.4043
Te         3.0311       12.9662       37.7317
Te         20.9694       13.2067       43.9646
Te         46.8085       20.8032       43.4745
Te         2.00398       35.0301       42.9733
Te         25.8142       34.1034       40.7505
Te         44.9233       36.0602       43.2512
Te         0.328443       56.0852       41.0642
Te         22.1481       53.8283       38.4763
Te         45.9869       54.3573       43.4428
Te         20.7768       12.5014       17.7421
Te         43.0117       9.88086       19.8437
Te         62.3563       7.1509       17.3447
Te         20.9176       32.7755       15.1046
Te         41.1437       33.2494       16.7789
Te         2.01137       34.3985       13.7117
Te         19.284       55.3       12.3854
Te         39.6566       54.1264       16.3045
Te         61.5617       53.0859       12.459
Te         22.3969       13.8444       37.3544
Te         39.8836       13.3264       36.8289
Te         0.398725       13.0234       34.1921
Te         21.3007       32.3106       35.4267
Te         39.745       33.0551       37.932
Te         1.5762       32.5693       35.3298
Te         17.4462       51.5045       32.7448
Te         42.8738       50.6327       33.2839
Te         60.7528       54.2699       33.6242
Te         20.4964       10.4356       59.6829
Te         38.6924       15.9413       56.9318
Te         2.48725       12.4444       57.0347
Te         17.6047       34.6701       60.1646
Te         43.7135       36.6978       56.8436
Te         0.440344       34.6104       58.7259
Te         19.2556       51.7706       55.9935
Te         43.9133       54.3088       59.8233
Te         61.2114       48.6538       56.3683
Te         6.05591       14.3596       7.32638
Te         24.121       20.457       3.90076
Te         48.9606       15.4451       8.45942
Te         2.58623       36.0945       3.76461
Te         22.4923       41.2138       3.64945
Te         47.558       38.4987       4.27507
Te         3.29279       59.7846       3.01089
Te         23.7771       61.3244       4.38225
Te         46.0949       61.5667       6.97015
Te         3.36533       17.5466       29.5429
Te         25.4446       15.1558       26.0679
Te         49.8539       17.9043       24.5448
Te         3.71995       35.7013       26.95
Te         22.6838       39.0448       26.33
Te         46.3861       35.3197       26.1462
Te         4.75644       58.2989       26.3144
Te         25.496       61.4956       24.9738
Te         47.3836       60.161       28.2758
Te         2.82422       20.5902       46.6499
Te         23.7532       16.6095       43.6586
Te         45.8211       18.0045       45.4601
Te         3.43706       39.8375       48.9395
Te         23.0282       35.875       43.5167
Te         48.6877       37.9721       46.6452
Te         2.25847       0.496643       44.764
Te         26.242       59.0532       43.2798
Te         43.6147       61.8027       46.8727
Te         8.26161       1.09223       19.3245
Te         26.0858       61.5775       18.2865
Te         48.5581       3.24943       17.5095
Te         6.95438       16.076       17.2975
Te         30.5844       18.0645       17.9089
Te         45.7526       19.919       13.7769
Te         6.82751       37.4811       17.7376
Te         30.1896       41.2405       19.2848
Te         51.4181       43.1159       13.0199
Te         4.12724       61.1464       35.9241
Te         26.6346       61.8872       34.506
Te         46.3833       2.13322       39.6215
Te         5.35675       24.4672       35.8909
Te         23.5952       20.8859       37.9598
Te         47.3575       24.4443       35.7398
Te         7.82279       42.787       41.4263
Te         28.3282       43.3442       37.0922
Te         48.5146       41.0771       39.5741
Te         6.03257       61.5144       56.6701
Te         26.2413       60.4668       50.7089
Te         44.9367       2.08829       57.88
Te         6.72339       23.4831       58.1002
Te         24.9935       21.2741       58.8498
Te         48.6979       20.4839       55.99
Te         7.38535       43.971       56.8744
Te         30.0709       47.251       57.7021
Te         49.2116       42.8029       55.4194
Te         5.28423       0.553199       16.8883
Te         22.5261       2.8576       11.9607
Te         41.683       0.190945       12.6021
Te         1.494       22.9035       14.6124
Te         26.2991       22.8312       12.6447
Te         46.7552       24.8574       13.0586
Te         3.5885       41.8934       14.8927
Te         22.3851       40.3597       16.3418
Te         44.4188       42.086       15.2943
Te         1.85329       1.90399       36.6491
Te         25.0092       1.32442       38.0056
Te         48.331       6.127       36.4603
Te         4.4649       23.9373       31.2469
Te         21.3662       23.2236       35.0189
Te         41.5069       25.1411       35.4405
Te         4.15544       41.3144       38.3489
Te         22.922       43.0882       36.3822
Te         44.4869       43.316       33.6636
Te         7.02678       61.8105       52.3896
Te         25.2804       61.5707       56.8397
Te         41.6185       3.39332       56.2087
Te         0.762189       23.4335       54.4792
Te         23.512       17.695       55.9726
Te         43.3337       22.3963       54.9716
Te         62.7279       43.5451       55.956
Te         23.0349       43.1413       55.746
Te         45.0816       45.5354       56.5566
Te         1.92256       7.07836       2.6354
Te         25.1783       7.33941       7.50925
Te         40.6181       4.13087       4.7649
Te         2.50128       26.1421       2.5019
Te         24.9854       28.1929       5.07095
Te         42.9214       29.0789       61.1386
Te         62.3611       48.6273       62.3417
Te         20.3247       48.3197       3.31562
Te         43.3568       48.0479       1.22184
Te         2.01162       3.90915       21.1191
Te         24.8631       2.99897       27.9066
Te         44.3175       6.10182       25.4843
Te         3.23088       29.9681       25.9182
Te         22.4358       27.4872       21.0687
Te         42.3775       25.9882       20.1596
Te         1.18144       48.7036       23.7549
Te         22.252       48.8816       21.1665
Te         44.9346       49.9572       24.3046
Te         2.738       9.92954       44.2535
Te         19.6804       5.12503       46.5027
Te         42.1714       6.16042       47.2057
Te         5.16673       26.2245       42.0433
Te         23.7301       25.7072       46.2772
Te         42.7187       29.0389       46.5924
Te         61.7342       48.6203       44.1319
Te         23.6649       46.523       46.425
Te         41.2555       46.5415       47.3705
Te         8.27143       2.43393       9.55563
Te         28.9221       8.0096       8.41129
Te         47.1611       6.21377       9.03814
Te         7.93621       24.0729       7.28862
Te         32.6591       27.5306       6.30528
Te         48.5385       22.0398       7.11688
Te         5.90092       43.7706       5.16503
Te         25.9929       46.1074       11.5005
Te         44.3924       46.6713       13.3035
Te         6.09869       5.61532       30.9956
Te         25.0776       4.81698       31.5134
Te         49.295       5.19517       29.4308
Te         8.08662       24.2781       28.3846
Te         24.9059       23.0447       29.3161
Te         44.4637       22.9929       34.0929
Te         5.943       41.5961       29.7794
Te         26.9265       42.7652       29.0097
Te         45.0103       43.0963       27.1652
Te         7.82408       3.50554       49.6003
Te         26.2352       1.52497       48.9718
Te         47.6407       3.08574       51.6587
Te         6.04008       23.8592       51.2516
Te         32.4571       23.9674       50.9306
Te         47.7912       22.3943       49.4492
Te         4.4488       48.1165       49.2975
Te         33.6556       49.8017       51.7428
Te         46.1019       46.4627       48.7478
Te         7.02917       2.16446       14.0918
Te         30.9848       0.805878       11.4308
Te         48.5509       3.88072       13.7461
Te         5.08165       24.0711       14.5737
Te         33.1511       23.0686       15.722
Te         49.9136       26.6146       14.1741
Te         9.29311       42.1254       15.6996
Te         25.6678       43.3625       17.6067
Te         47.4821       46.6089       18.031
Te         4.66947       3.65642       35.0329
Te         25.9927       3.24341       34.3326
Te         48.7403       0.73593       36.7056
Te         8.96635       26.0172       35.2125
Te         26.2682       24.2926       37.9816
Te         50.3417       25.5385       34.3573
Te         8.0393       42.0126       35.0915
Te         26.6899       43.8732       33.8288
Te         50.836       42.9425       37.7417
Te         6.90781       2.33615       58.3673
Te         29.2267       61.1461       56.3839
Te         49.9818       0.397834       53.396
Te         7.95963       23.1628       54.3667
Te         29.0166       25.3888       56.9188
Te         50.7476       24.7249       52.0365
Te         5.89686       48.6962       53.4256
Te         27.991       44.2068       56.5905
Te         53.0164       47.7931       55.5015
Te         24.3997       12.3228       9.01837
Te         41.486       12.1429       0.506296
Te         1.31781       9.31944       5.48154
Te         19.9747       30.6432       5.44637
Te         42.2226       25.6369       1.75992
Te         60.6689       26.9933       3.58565
Te         18.8669       52.949       59.2745
Te         37.7628       52.0386       5.18774
Te         59.5258       55.191       1.89727
Te         21.7204       9.86252       22.1712
Te         41.3745       8.35249       26.0752
Te         1.13253       8.18763       26.5963
Te         21.5082       31.5916       26.3085
Te         39.6118       31.5012       25.6438
Te         60.1402       30.6585       26.633
Te         22.3804       49.1034       24.9991
Te         39.3452       52.0605       20.6113
Te         59.8774       43.2727       24.5436
Te         19.2956       7.88925       44.224
Te         39.9749       9.78239       41.9605
Te         0.498647       13.8667       41.6431
Te         20.1893       29.7689       45.7645
Te         37.9871       28.2408       46.5558
Te         59.8888       31.4374       44.4044
Te         19.9206       51.5446       47.1212
Te         38.858       52.4616       43.3862
Te         59.6032       51.7281       43.9868
Te         1.18605       2.04134       5.85156
Te         21.7847       3.09137       8.33621
Te         41.8912       3.57601       8.27462
Te         4.3801       19.963       5.38754
Te         26.26       27.8481       8.38216
Te         44.8005       22.381       5.84924
Te         2.02198       44.2956       6.61043
Te         22.0211       45.6716       1.58519
Te         42.8645       44.7709       4.12004
Te         2.06957       2.28916       28.716
Te         20.9562       3.74515       26.5524
Te         43.8028       2.39813       26.4874
Te         3.13572       24.9407       27.8487
Te         21.3185       24.3158       27.3224
Te         43.3707       24.0574       27.8145
Te         0.942656       44.7724       26.4203
Te         25.7144       46.9721       26.0853
Te         42.3986       41.5886       25.0336
Te         3.67324       4.49142       48.2552
Te         23.0718       3.17874       47.474
Te         40.0691       0.875465       47.2453
Te         3.63265       28.125       46.0327
Te         20.4998       25.331       51.8868
Te         44.9352       23.9207       46.7351
Te         1.21214       46.3434       49.5015
Te         19.6714       44.895       45.0981
Te         41.0711       40.2982       47.7275
Te         5.02079       9.37724       11.286
Te         26.8995       12.8275       13.8636
Te         49.2761       9.82585       9.66714
Te         3.8314       30.505       9.62411
Te         28.0405       33.1935       8.50863
Te         45.5242       30.6048       3.77726
Te         4.06752       51.7834       8.29389
Te         25.844       55.0932       5.67303
Te         47.4676       51.7417       10.613
Te         3.79015       10.9921       34.3089
Te         26.4758       11.1029       32.4135
Te         50.814       10.0279       30.4281
Te         8.24605       30.0896       29.1757
Te         24.5977       29.8689       28.1259
Te         44.9053       32.3786       28.4021
Te         3.0033       50.0735       30.362
Te         23.3237       55.2153       31.2971
Te         44.3082       51.5297       28.5186
Te         6.14998       14.4879       51.5075
Te         24.3041       7.02824       48.2213
Te         45.9558       13.0994       49.8823
Te         5.29186       30.4354       51.9376
Te         26.1961       32.0088       53.7232
Te         46.3546       33.0297       51.7402
Te         5.99648       53.9279       47.4619
Te         25.7675       51.9042       50.2873
Te         44.7633       52.2039       52.0466
Te         61.7089       19.0976       19.3408
Te         25.4093       19.3867       18.9045
Te         44.7457       18.2844       17.9815
Te         4.28384       40.1782       18.6866
Te         24.0132       39.1039       19.8956
Te         47.4608       37.5194       21.0673
Te         3.56867       58.4226       20.7845
Te         22.8416       60.3239       17.6196
Te         48.3233       61.7979       17.523
Te         0.661912       18.4305       31.9064
Te         23.0239       18.2837       40.2144
Te         44.0649       19.5601       40.5909
Te         3.15582       37.8008       39.9418
Te         22.4303       39.4811       36.1901
Te         42.2786       38.0512       41.3149
Te         2.5518       0.46839       40.3718
Te         20.2542       60.9565       40.4794
Te         43.9359       2.14735       36.7763
Te         2.94703       18.489       59.7888
Te         21.4375       20.9451       61.0686
Te         45.2559       19.2961       55.8824
Te         4.60086       40.829       59.7906
Te         25.5747       40.5017       56.5959
Te         45.9331       41.3303       57.0038
Te         3.01199       60.8442       58.9627
Te         27.2828       2.45914       60.9892
Te         41.0578       59.7945       60.0103
Te         9.11827       20.0059       5.04294
Te         32.2952       21.1034       4.38884
Te         48.6358       13.1405       5.39602
Te         4.21523       39.0507       4.00121
Te         25.7876       39.2565       0.0523872
Te         47.4382       42.2757       5.84531
Te         6.80376       61.1339       1.71723
Te         28.6146       0.290389       2.60113
Te         47.3138       2.06302       3.81843
Te         6.82191       16.2315       21.0897
Te         31.003       20.4146       26.5666
Te         50.6396       21.7951       24.6882
Te         7.58243       40.1845       26.6543
Te         28.854       37.0242       27.298
Te         48.28       38.372       24.4874
Te         9.79921       59.3797       26.1589
Te         27.8204       58.7231       26.341
Te         50.6816       -0.24028       27.8176
Te         6.31007       19.9923       47.6232
Te         26.0676       19.6294       45.2932
Te         49.7402       23.9001       42.7524
Te         5.76973       41.6787       45.8259
Te         29.8947       39.0788       43.1362
Te         52.3419       42.2268       46.0805
Te         8.62395       1.536       43.6436
Te         29.4361       57.4822       43.4442
Te         47.3185       61.3368       47.5584
Te         18.4778       15.4987       17.1326
Te         41.2027       13.8788       18.1432
Te         56.0065       14.936       23.1152
Te         19.2839       34.9934       12.6737
Te         38.5752       32.1077       14.0667
Te         60.9734       36.9767       13.1232
Te         16.52       52.4032       16.5766
Te         35.8148       54.8593       21.0348
Te         60.23       55.0776       15.5382
Te         15.3635       14.0809       38.143
Te         38.135       10.3178       38.645
Te         55.7252       16.2968       39.0567
Te         18.2756       36.4887       36.0828
Te         37.0359       33.6489       34.8974
Te         58.4056       35.6356       35.9226
Te         16.0311       61.0977       35.255
Te         38.7942       54.4263       36.3734
Te         57.0783       54.8733       34.2767
Te         18.0969       14.8235       58.7716
Te         36.5491       18.0965       58.6345
Te         59.8208       14.811       57.9703
Te         15.2167       32.7504       0.18533
Te         37.6698       37.1422       57.4116
Te         58.6681       35.7202       57.1648
Te         17.9965       55.8537       56.9761
Te         38.7136       54.6498       60.5285
Te         59.9496       55.0012       57.0902
Te         8.09614       10.1445       8.7864
Te         29.9115       16.0874       7.98543
Te         51.582       11.8973       7.2405
Te         8.1282       35.4193       6.44125
Te         28.6893       40.5995       3.46686
Te         47.6408       37.0539       8.52676
Te         6.26664       57.0942       3.15396
Te         29.8009       59.8868       4.69369
Te         48.9168       55.5888       7.21734
Te         10.637       15.8852       29.1171
Te         28.5485       17.6015       27.4459
Te         52.0404       14.1418       30.5236
Te         7.38869       35.8951       27.3485
Te         28.65       33.4959       25.2547
Te         49.0023       34.2515       23.9389
Te         7.39745       54.8962       25.3526
Te         31.8051       58.1283       29.2624
Te         52.6118       57.6729       27.121
Te         3.35558       16.8176       46.5986
Te         27.5728       14.0097       49.6523
Te         46.0583       16.8347       48.7566
Te         7.09593       38.5516       47.461
Te         31.2654       34.145       45.6514
Te         51.5573       39.8736       49.0296
Te         3.65513       60.2884       48.1841
Te         27.4311       57.4429       47.173
Te         46.8389       55.9202       47.1283
Te         9.48147       22.4199       11.4086
Te         31.8614       20.1246       14.3527
Te         51.7138       20.085       11.4464
Te         10.8827       43.3908       12.489
Te         30.4592       46.8556       6.29207
Te         52.0658       39.7971       9.16784
Te         9.45169       58.1433       11.3104
Te         32.5756       60.791       14.9094
Te         53.3518       61.8857       10.5208
Te         7.78868       20.7061       25.1478
Te         29.5098       20.5412       35.608
Te         50.1527       22.0219       33.4369
Te         10.3991       43.0337       31.4472
Te         30.1315       43.5335       32.3515
Te         49.8167       38.0501       30.2191
Te         7.94649       1.56005       34.9332
Te         30.5167       0.324217       32.4249
Te         51.3173       60.2578       31.5907
Te         10.6924       22.7505       51.941
Te         27.9769       18.5328       53.3381
Te         50.3059       21.1795       51.7736
Te         10.0426       46.8331       54.0353
Te         29.2022       42.3919       53.3788
Te         53.4435       39.826       54.3639
Te         10.2082       2.34056       53.8606
Te         30.1376       3.66393       55.3765
Te         50.999       60.7352       55.8578
Te         23.3501       19.6731       14.998
Te         42.8054       15.2536       11.8472
Te         2.11576       19.2456       16.7824
Te         19.3663       38.4387       13.829
Te         40.5699       42.048       14.9388
Te         60.6221       43.956       16.8065
Te         20.3299       59.2437       14.9389
Te         42.1588       59.8292       18.7853
Te         2.61132       60.7866       16.271
Te         19.1906       19.6739       33.7307
Te         40.3997       21.4238       34.2521
Te         57.4289       21.4375       35.3219
Te         20.0938       42.6316       33.5034
Te         43.3658       38.2104       36.7402
Te         2.06675       41.1236       35.5583
Te         19.6891       60.258       36.0413
Te         40.6623       58.4084       33.5412
Te         57.9669       57.8012       36.4235
Te         17.2712       19.7439       62.0336
Te         40.6164       18.8716       55.5376
Te         3.11026       19.7603       56.1106
Te         21.1655       36.6167       57.9575
Te         40.8807       40.3378       57.3043
Te         60.2337       39.4543       59.0074
Te         21.9679       0.106885       58.2323
Te         41.7081       0.933695       60.5014
Te         1.4661       1.12791       52.9407
Te         11.5531       17.2104       12.2003
Te         34.0739       18.6031       10.6941
Te         59.2593       17.8091       7.48063
Te         13.3211       40.8898       10.9872
Te         31.5386       41.0057       10.2826
Te         54.5041       42.122       10.8584
Te         11.5862       0.878302       8.62828
Te         35.5149       58.5532       14.6879
Te         56.8539       61.8142       11.7271
Te         11.3985       18.8199       33.1775
Te         34.8509       18.7583       34.9391
Te         52.1573       19.1447       33.9195
Te         13.6376       39.1282       32.056
Te         38.5388       40.3483       32.4849
Te         50.4079       39.7446       33.201
Te         9.47525       61.163       32.283
Te         33.3189       60.7279       33.559
Te         57.5788       61.5195       36.768
Te         12.3657       21.1169       55.9343
Te         33.5352       19.9003       51.2971