3840
 Atoms. Timestep: 200000
Te         18.8905       0.421333       18.5719
Te         38.021       1.09237       20.1525
Te         19.8394       19.2959       18.8313
Te         37.0311       21.7406       17.9999
Te         18.4255       0.0265458       3.79244
Te         1.09322       39.3267       39.7048
Te         17.7806       20.3928       40.7642
Te         40.8982       15.7439       38.9647
Te         19.1458       19.1582       7.94501
Te         38.6027       18.3652       8.06788
Te         14.9636       37.3888       12.1894
Te         37.9486       40.6902       6.12897
Te         16.9816       19.8172       29.7895
Te         38.0195       15.8873       29.1486
Te         16.6383       34.5318       27.1698
Te         38.8782       36.2551       33.1292
Te         2.04791       5.68171       18.1892
Te         25.4907       4.28536       19.0165
Te         4.28912       25.7254       15.7288
Te         25.1338       22.6271       16.6988
Te         5.79958       4.24571       36.2775
Te         27.3953       5.61762       33.3262
Te         4.5202       19.6818       40.1563
Te         23.3       23.1655       36.0982
Te         40.5026       5.09266       0.0824486
Te         18.4834       7.29928       2.39056
Te         38.7679       31.3456       0.727145
Te         18.4786       26.0672       3.83227
Te         40.4458       7.91402       22.0985
Te         22.1776       6.05384       24.9128
Te         3.52072       24.3895       24.4806
Te         18.8985       26.8692       23.0027
Te         16.4903       40.9446       9.24953
Te         35.1642       39.3684       3.31586
Te         21.2707       23.7556       9.34571
Te         1.01307       20.3793       6.34795
Te         21.0688       40.582       28.1628
Te         40.2073       1.56561       29.791
Te         18.8579       17.3788       27.4933
Te         40.3573       22.7819       27.0551
Te         4.40345       7.25009       10.6026
Te         24.1882       3.3403       10.0683
Te         3.07128       16.6445       4.20398
Te         18.7627       26.3086       11.9477
Te         1.11089       3.29519       26.9874
Te         28.2947       2.3191       30.8537
Te         3.96391       22.7397       33.0235
Te         25.0731       24.291       28.5633
Te         5.54579       12.4271       1.93883
Te         28.5923       11.1183       2.1907
Te         6.05964       32.0993       41.3228
Te         26.1111       31.4236       0.0604112
Te         6.95597       12.4908       23.3276
Te         27.7918       13.5096       25.0128
Te         5.58053       33.2706       21.3882
Te         28.3809       33.5151       20.9803
Te         20.0779       14.164       16.4827
Te         0.232424       15.7999       14.6391
Te         21.2223       36.7767       13.1035
Te         40.0204       32.8291       17.9233
Te         19.9901       14.1374       34.1966
Te         0.385207       11.8862       31.8557
Te         20.5358       37.2768       38.8082
Te         0.872807       34.4639       35.4183
Te         38.7587       13.6431       7.10029
Te         25.2522       14.3743       3.50459
Te         2.92569       34.9426       2.53955
Te         23.3176       32.6018       3.06908
Te         5.64633       13.4052       19.789
Te         22.3709       12.1247       26.0973
Te         1.3134       34.4865       26.3611
Te         26.4236       35.656       23.1131
Te         7.54768       20.9466       19.8082
Te         29.0459       20.9469       15.3457
Te         5.85892       3.17639       16.4579
Te         29.5288       37.5329       17.9411
Te         7.18375       19.1832       37.8185
Te         28.2742       20.1348       40.0194
Te         9.99023       37.5385       38.1599
Te         31.7583       34.3908       39.5132
Te         2.89055       41.0088       13.9994
Te         28.3111       3.56316       13.5339
Te         4.46002       22.7763       14.3806
Te         24.9613       17.4642       14.2018
Te         1.84896       41.4085       33.986
Te         22.3409       0.749427       1.66103
Te         1.44931       18.2975       38.1338
Te         25.1313       19.3135       37.2565
Te         5.33638       5.76329       3.65413
Te         27.5864       6.92973       2.754
Te         4.06897       26.8737       3.20905
Te         21.4506       24.9667       2.26198
Te         7.10981       9.43335       26.8048
Te         28.7785       5.42794       25.1797
Te         6.9473       28.1488       22.3893
Te         22.6884       28.329       22.3229
Te         40.1415       2.63446       6.48259
Te         21.4699       0.702459       6.83846
Te         1.93887       21.3348       2.84849
Te         25.2168       21.944       8.9446
Te         0.752919       41.4124       23.4141
Te         24.3527       1.10168       28.0934
Te         2.7297       23.492       28.7002
Te         24.9562       20.7082       27.1796
Te         9.11417       5.18836       17.1325
Te         34.3515       2.12857       18.2222
Te         10.1322       23.9924       17.165
Te         27.5441       26.0292       14.7558
Te         7.5619       2.08431       41.0448
Te         31.4164       1.38146       37.215
Te         9.77047       22.8083       37.796
Te         28.4583       24.0688       39.8153
Te         1.86493       6.50748       1.96476
Te         22.0349       12.5138       4.46034
Te         4.63849       30.6163       2.76812
Te         22.5615       29.2175       0.307532
Te         3.9701       9.51869       24.6344
Te         22.0524       9.29619       22.6141
Te         2.41293       32.4271       23.4247
Te         23.3498       31.9252       24.1256
Te         2.88542       3.60872       7.16775
Te         17.3895       3.4951       4.99323
Te         2.36802       28.663       5.75865
Te         23.6397       23.2012       5.14266
Te         0.870411       4.1892       23.412
Te         25.0859       8.17411       25.5383
Te         7.75975       24.2342       26.1711
Te         23.8261       26.4108       25.5482
Te         4.45342       11.0393       10.0462
Te         24.1145       8.82165       9.51836
Te         5.49274       35.4191       9.68056
Te         26.9799       34.6718       9.45385
Te         2.74221       12.4027       27.7151
Te         26.7354       13.0761       30.9435
Te         7.89882       26.9236       30.8555
Te         26.0561       35.5498       29.1561
Te         5.48887       18.0181       18.778
Te         24.9793       19.5148       19.4013
Te         0.804846       38.9036       16.3855
Te         22.0303       40.3147       16.2575
Te         4.98868       15.6917       38.3163
Te         24.9416       15.7002       38.6717
Te         6.92632       39.2958       38.6386
Te         26.836       41.2079       38.1116
Te         8.69878       16.7449       40.3904
Te         25.6913       16.9275       6.05511
Te         8.56537       40.4036       1.23268
Te         30.4312       35.688       1.26829
Te         7.00866       18.2348       28.0249
Te         27.373       17.8169       25.8023
Te         5.62811       39.6172       18.7105
Te         29.5831       37.8093       25.828
Te         18.7151       14.6785       20.0979
Te         36.0491       20.0698       14.7069
Te         17.7394       36.566       15.5314
Te         36.1877       34.1133       18.5314
Te         19.1989       19.8774       35.5473
Te         38.7763       18.3098       37.2444
Te         18.9254       37.7553       34.6209
Te         35.4908       38.1162       35.9474
Te         7.80472       11.4156       10.4282
Te         24.9377       16.8167       10.5396
Te         9.50521       35.3082       7.71903
Te         30.8288       35.1545       11.5564
Te         9.01641       15.6515       25.1456
Te         30.1908       16.0184       29.812
Te         11.3684       31.5222       27.8663
Te         31.9818       34.3448       26.8001
Te         7.39775       3.74648       13.2235
Te         24.4004       3.82041       15.8874
Te         8.89516       24.0287       13.6706
Te         27.2665       25.8452       10.1454
Te         5.36617       2.7316       32.2084
Te         28.4103       1.13141       34.9396
Te         9.01954       21.2853       34.7222
Te         27.0491       22.5338       36.6031
Te         12.765       24.0468       19.3726
Te         32.0635       19.6429       14.3159
Te         14.8481       39.7844       22.1
Te         32.3607       40.6422       19.3816
Te         15.6159       20.4879       37.2762
Te         36.3676       21.8209       36.8324
Te         17.749       41.2632       36.7256
Te         35.7594       40.4218       39.1745
Te         13.0453       7.68774       10.0711
Te         27.3436       41.4645       7.1427
Te         12.2698       22.0516       12.6566
Te         32.2954       20.8557       10.3872
Te         13.7085       1.99721       32.2792
Te         34.6977       40.9093       30.6181
Te         12.8913       20.9553       30.67
Te         32.1463       21.7939       29.0562
Te         13.2227       7.44829       15.1794
Te         29.8306       10.7814       17.1281
Te         10.063       27.388       14.4767
Te         32.1971       27.0527       11.1623
Te         9.7173       5.20964       38.8537
Te         30.297       5.83927       36.7099
Te         5.6537       22.4537       37.1884
Te         31.4819       23.9432       36.2455
Te         9.55869       11.0644       21.1341
Te         26.7491       12.4961       20.8947
Te         9.20387       34.3094       20.9039
Te         29.6407       30.1577       21.0758
Te         6.07657       8.85887       1.76712
Te         28.7006       7.02704       40.7133
Te         9.44595       32.7334       41.3458
Te         28.5701       28.3548       38.192
Te         14.059       10.8911       7.98115
Te         30.6667       7.69487       9.93467
Te         10.797       31.6932       9.5881
Te         34.026       27.3629       8.04164
Te         8.43414       4.45221       31.0481
Te         32.1041       9.34037       31.4098
Te         9.31567       30.6548       31.9647
Te         32.8129       26.639       26.5734
Te         8.70663       16.6092       17.6888
Te         34.0296       16.8645       16.0511
Te         8.46365       34.1639       15.7818
Te         29.9916       34.5953       15.9721
Te         11.9683       13.1552       37.3637
Te         32.345       16.2187       37.7642
Te         11.7316       35.3396       35.5078
Te         32.0591       39.1898       37.2288
Te         3.72315       13.5621       6.65156
Te         24.2965       14.0983       8.32313
Te         5.53786       35.1775       4.67846
Te         26.7325       33.5978       4.94585
Te         6.12811       14.209       26.6096
Te         28.8332       10.0701       26.9682
Te         6.81903       34.6789       24.8545
Te         28.066       33.0106       25.5272
Te         10.0334       13.0852       14.1715
Te         26.7276       13.6354       17.5586
Te         4.37608       34.8134       13.1246
Te         30.9474       31.8906       17.9688
Te         3.72049       14.1866       31.0376
Te         28.4574       14.3393       35.2465
Te         6.22315       32.1637       30.2912
Te         26.6488       35.5614       33.8125
Te         13.7315       21.8867       40.6891
Te         31.833       21.8063       3.70091
Te         11.6256       41.3785       3.20983
Te         32.5264       0.646063       40.3969
Te         14.2209       19.9601       27.2153
Te         32.022       19.5467       21.3054
Te         11.6194       40.6211       25.0696
Te         28.2781       0.0346273       19.4124
Te         15.9218       0.780478       12.806
Te         38.7233       2.11164       9.74268
Te         11.4896       21.7213       9.00248
Te         34.7749       21.474       6.63742
Te         16.7987       4.02729       31.7916
Te         38.8168       40.9652       33.18
Te         17.3735       23.9868       30.3123
Te         36.7013       21.5178       28.2682
Te         17.265       2.84685       15.7029
Te         37.1154       1.62837       13.3128
Te         15.0047       23.0333       14.9674
Te         39.2429       25.0671       11.9596
Te         19.9653       4.38464       37.9239
Te         37.3047       3.79022       33.5543
Te         14.5454       27.7543       35.777
Te         39.6315       22.0758       39.6209
Te         15.8636       2.49064       19.6086
Te         40.2371       5.28293       14.4861
Te         17.1176       22.869       18.2168
Te         1.23177       25.9123       18.2088
Te         19.0415       1.51333       40.959
Te         39.4224       40.4621       36.875
Te         18.6758       28.3946       1.0611
Te         36.4128       24.1307       39.9373
Te         18.1606       10.0163       5.50664
Te         35.7558       1.95783       6.86312
Te         20.2553       27.7583       8.33661
Te         40.2081       27.3033       4.50873
Te         22.7503       4.19941       28.2305
Te         38.0301       9.84412       26.707
Te         17.3941       30.8391       26.1971
Te         38.7369       25.3913       29.1085
Te         0.872192       12.2011       13.4713
Te         22.7174       11.1125       13.8446
Te         0.449442       32.1688       14.2903
Te         22.9926       25.8799       15.0415
Te         41.546       8.99219       34.7208
Te         24.8419       8.34001       40.0601
Te         1.35875       32.4017       38.5068
Te         21.7696       33.3382       39.6985
Te         18.4152       13.4413       6.4788
Te         35.7118       13.0109       4.86204
Te         18.9132       31.1241       5.18745
Te         40.3039       34.7402       3.58733
Te         18.8486       13.1799       26.0621
Te         41.1715       14.0937       27.8333
Te         18.9412       36.7337       21.9971
Te         40.7609       31.4714       26.6101
Te         13.3263       10.808       15.6305
Te         33.0221       7.23269       14.2618
Te         17.183       33.2967       12.0041
Te         35.2621       31.7074       11.5041
Te         15.1257       6.7057       29.8991
Te         30.5457       9.12802       34.8145
Te         9.83384       25.5685       35.2013
Te         35.2193       24.7044       29.8598
Te         15.609       19.6771       18.7503
Te         36.1277       18.2055       18.6956
Te         17.318       38.3077       18.8375
Te         37.0296       38.9347       20.6983
Te         14.5986       18.0642       40.3378
Te         39.4341       18.5555       41.4273
Te         13.4625       40.5309       37.4868
Te         38.7172       2.91799       38.9539
Te         10.7084       14.5525       3.34035
Te         32.9892       14.8246       2.65276
Te         14.9686       38.0131       3.65134
Te         31.7485       34.8388       7.97873
Te         11.6449       14.1801       27.7406
Te         35.677       18.3111       26.7741
Te         13.7212       33.9779       24.0505
Te         35.7516       36.7512       26.2011
Te         16.0498       14.2604       15.9985
Te         39.3263       14.3286       12.0644
Te         18.7149       32.9293       15.2423
Te         39.1863       34.5524       13.6488
Te         17.3184       16.7821       34.3904
Te         37.6121       11.3637       34.5019
Te         19.4396       34.0341       35.488
Te         36.8027       32.5922       32.7939
Te         5.84572       3.22676       9.20736
Te         27.8244       2.45745       9.92172
Te         5.68841       20.555       6.54805
Te         24.1561       25.9857       8.08384
Te         5.36494       2.84331       28.6114
Te         29.3015       40.9539       28.382
Te         5.32701       19.3468       31.5362
Te         28.5395       23.0919       27.2906
Te         2.77224       2.52629       20.2714
Te         25.8489       5.38325       22.5673
Te         3.63       20.4737       21.2353
Te         21.5271       23.4888       25.3714
Te         3.54153       5.43265       38.6393
Te         20.6881       3.03743       4.08274
Te         0.169579       24.6847       2.46377
Te         25.344       24.906       2.29087
Te         3.82494       17.1465       7.84278
Te         21.867       16.9835       3.79538
Te         7.34915       38.3864       5.86229
Te         31.4225       38.5339       8.60295
Te         4.88165       17.2643       23.15
Te         25.446       14.9424       27.4263
Te         6.99513       37.428       27.3848
Te         23.5471       35.7455       25.4441
Te         6.56734       9.91609       19.1053
Te         22.669       11.7702       18.0129
Te         7.43011       31.5491       18.623
Te         27.3641       30.0189       16.9423
Te         6.37703       10.8745       34.0377
Te         27.4874       11.4184       37.9768
Te         2.71496       29.3909       40.4956
Te         25.9746       30.3143       35.918
Te         5.11833       16.6926       0.885295
Te         25.734       12.0756       41.2583
Te         5.93539       37.7209       1.96668
Te         26.9081       37.0133       40.9515
Te         8.10203       16.2221       21.7225
Te         26.3971       16.6364       22.3177
Te         2.67446       39.5172       20.714
Te         25.5253       37.7705       19.6915
Te         5.74497       19.6207       12.6006
Te         21.125       16.2291       6.88961
Te         3.45121       38.8598       9.85758
Te         23.2637       38.881       11.2366
Te         1.66133       16.0706       33.9869
Te         28.2545       17.1599       33.0952
Te         7.05833       35.6981       30.3682
Te         26.2099       32.6258       32.0812
Te         11.2087       17.7646       22.1634
Te         29.6916       15.2618       22.3851
Te         10.116       38.0317       16.5036
Te         32.7552       36.7535       19.289
Te         7.77311       12.969       40.4184
Te         30.6978       17.0857       0.112609
Te         10.096       35.1571       2.61767
Te         29.2878       31.8079       39.8873
Te         5.80369       20.4036       2.81534
Te         25.829       19.8148       1.51676
Te         6.38238       2.52168       5.38814
Te         24.2461       39.9363       6.17287
Te         5.06225       21.6725       25.3073
Te         28.5188       21.2449       23.7525
Te         5.1582       0.00701734       22.1979
Te         25.236       38.3957       26.8772
Te         0.829834       17.9858       1.28796
Te         25.8493       16.3105       0.567879
Te         4.15622       2.52366       1.15214
Te         21.062       40.4287       40.1296
Te         0.390019       22.3587       18.633
Te         24.9062       21.4895       23.4651
Te         3.09806       0.236865       17.5691
Te         22.4167       40.1976       20.6364
Te         12.1458       4.23825       0.0421288
Te         34.8521       4.89418       41.1993
Te         14.0431       25.8324       1.49323
Te         32.3585       24.8438       1.49785
Te         12.8353       0.482161       28.1945
Te         31.8538       1.14759       22.3764
Te         14.4558       24.5464       23.2749
Te         33.5739       25.3353       22.218
Te         9.45941       4.80226       10.4121
Te         28.6883       5.48988       7.51819
Te         9.57945       26.6947       10.1741
Te         35.0886       24.1372       9.23077
Te         9.97291       0.171028       30.7829
Te         31.1186       5.78846       32.64
Te         9.19885       19.41       31.7052
Te         29.0003       23.1986       32.1833
Te         10.3231       6.83461       20.3263
Te         33.1184       5.61011       17.7222
Te         11.0508       29.0733       17.6008
Te         32.5567       27.9267       18.6372
Te         8.49206       8.70548       40.4267
Te         31.1952       4.34555       39.6455
Te         10.0524       28.1767       0.738567
Te         28.3055       25.9574       35.1314
Te         10.705       0.461414       11.1203
Te         33.4859       2.31926       14.3788
Te         13.774       26.3487       15.9757
Te         34.9554       22.6528       12.2581
Te         12.3261       5.53144       32.4002
Te         33.3758       3.21861       34.2604
Te         14.2515       24.0954       37.6598
Te         33.3611       25.7227       33.4124
Te         10.0869       13.6553       18.7981
Te         30.281       13.839       19.2327
Te         7.22348       29.3845       13.7051
Te         31.8064       32.1097       13.4278
Te         13.7037       9.84932       37.2479
Te         30.7629       9.64809       39.1006
Te         10.6516       32.5678       37.3044
Te         29.8415       32.6327       33.0957
Te         12.2902       17.9733       10.1709
Te         33.3159       13.8049       11.0868
Te         14.2355       35.0121       14.9458
Te         35.4052       38.2933       9.4673
Te         15.7658       15.4539       31.3201
Te         36.0452       14.7059       32.8001
Te         12.8911       35.3446       28.8597
Te         37.3043       34.5465       28.9293
Te         12.5361       14.5516       22.9892
Te         31.6511       9.58574       21.3426
Te         6.53614       35.8321       19.1321
Te         33.3529       31.7218       20.9085
Te         16.488       16.516       37.8672
Te         31.7229       11.6093       0.357409
Te         13.399       34.1255       39.3286
Te         30.0525       31.232       36.6028
Te         6.53075       16.161       4.02742
Te         28.0783       18.7983       10.9022
Te         5.94847       40.8623       8.471
Te         26.448       38.802       9.54447
Te         6.91223       15.3298       31.0044
Te         25.9488       18.0728       29.959
Te         6.91968       41.3885       29.072
Te         29.3073       33.0196       29.3158
Te         13.5536       5.44268       21.7934
Te         34.9575       8.8997       21.1598
Te         14.8157       31.5874       17.1915
Te         39.0131       24.7188       15.8762
Te         13.0688       5.12816       36.7199
Te         34.3255       9.63207       40.2568
Te         16.5716       26.9986       40.2638
Te         35.555       26.7864       0.927472
Te         17.1567       10.807       16.5286
Te         37.8021       14.7773       15.6572
Te         24.2357       30.584       14.9004
Te         37.9911       29.098       15.5624
Te         20.4468       13.0722       37.9081
Te         37.9508       10.6374       38.9174
Te         15.2854       31.1277       1.39642
Te         38.4025       33.0305       36.1776
Te         15.1312       15.9595       12.6916
Te         34.2716       9.47392       10.9113
Te         13.1142       34.9093       10.1063
Te         35.5799       34.7255       7.72151
Te         16.1207       11.3466       31.9556
Te         35.7083       9.91926       31.4629
Te         17.9488       29.9243       33.0902
Te         33.6842       30.9177       34.139
Te         14.1628       14.464       7.42502
Te         31.4528       11.8434       8.23711
Te         15.2134       33.4686       5.10705
Te         32.3221       37.4666       4.30254
Te         16.021       9.93704       25.7994
Te         34.7742       14.3383       29.3375
Te         14.8179       37.8134       25.0812
Te         36.681       33.3283       25.2541
Te         16.2811       8.66299       21.295
Te         36.8692       14.3538       19.6866
Te         19.1219       30.2532       19.0247
Te         37.8687       27.6103       18.8813
Te         13.5719       8.58598       33.6152
Te         38.9286       7.39632       2.76599
Te         14.0198       35.063       1.62238
Te         33.8076       29.8884       2.59076
Te         16.8644       12.2496       38.8312
Te         39.5117       11.0656       4.55353
Te         17.5473       34.8408       1.84953
Te         39.5182       33.5833       39.6119
Te         19.1254       11.4244       21.7492
Te         41.2182       13.1857       21.2463
Te         17.0353       33.3379       21.7912
Te         39.8684       36.6029       27.3936
Te         17.1604       22.1166       10.8953
Te         35.2324       19.2038       10.1191
Te         13.3143       0.68104       17.4578
Te         38.4404       39.8923       12.9957
Te         14.9213       20.6709       33.704
Te         39.4521       22.3547       34.7087
Te         13.7384       38.6033       29.6849
Te         35.7369       0.266447       35.0567
Te         20.6563       15.4783       13.1627
Te         0.89079       20.4475       11.3836
Te         20.2849       3.39119       14.3466
Te         35.8593       41.1333       16.7123
Te         23.2073       19.4595       34.1592
Te         0.335985       19.9132       33.3844
Te         20.0878       0.948345       34.1958
Te         0.294137       37.9372       34.5421
Te         21.7256       39.1415       3.47832
Te         1.53805       40.1429       1.77902
Te         19.5127       22.6357       5.86772
Te         40.103       17.3289       4.48412
Te         23.3655       1.96015       24.5141
Te         40.0016       40.621       26.1447
Te         21.8673       19.8209       24.9229
Te         0.928335       21.6333       23.6217
Te         4.0804       21.6399       9.59958
Te         21.3154       22.909       12.9275
Te         3.04156       2.21276       11.3367
Te         20.5106       39.0536       8.54609
Te         0.160138       21.7923       30.868
Te         19.1101       22.3152       27.7675
Te         0.435742       36.8867       31.27
Te         17.0249       41.1222       31.1607
Te         41.2924       8.20579       12.4213
Te         17.0043       4.15294       10.4514
Te         41.0012       29.0337       11.827
Te         21.0001       22.9732       17.426
Te         39.5091       6.92518       30.6027
Te         24.2737       6.84287       31.2644
Te         4.35921       25.8889       30.5188
Te         20.9878       27.0947       33.3342
Te         0.863409       10.2104       2.73693
Te         21.5501       10.6366       1.49108
Te         1.59497       32.1256       1.04111
Te         19.6241       31.8074       1.19174
Te         41.1479       12.8276       17.721
Te         19.567       9.6399       18.3464
Te         2.3389       31.9763       19.472
Te         24.1053       32.7387       20.1751
Te         2.87741       8.12644       5.18515
Te         24.809       9.4682       3.94669
Te         5.90849       29.0639       6.5853
Te         24.1199       32.3726       7.00509
Te         4.1202       6.95473       27.8859
Te         31.5656       4.58893       28.5632
Te         5.54177       27.6491       26.1926
Te         25.9878       30.2796       27.7769
Te         4.47339       10.5608       13.4025
Te         20.8623       8.98261       11.4189
Te         2.96694       31.4495       10.7117
Te         28.7575       31.5386       10.8577
Te         3.56519       7.83687       35.0384
Te         23.5511       11.611       38.885
Te         6.17417       26.3679       35.4147
Te         22.7577       30.9245       31.947
Te         17.9634       11.9496       13.0822
Te         2.17931       13.7629       10.1531
Te         21.3846       33.2634       12.5948
Te         3.47239       32.9522       7.56539
Te         22.6755       10.3542       31.8606
Te         1.61152       8.17606       30.7234
Te         21.6849       34.3434       31.8212
Te         0.183723       31.6135       33.7192
Te         1.95132       18.7902       14.8305
Te         29.2467       15.573       11.6476
Te         0.677823       38.0339       12.7045
Te         25.5521       37.3755       14.6711
Te         41.0985       12.923       36.3875
Te         22.9496       16.1868       31.927
Te         4.71091       34.6277       33.6529
Te         27.2113       39.3653       32.4322
Te         11.3756       16.7216       6.74906
Te         36.3631       20.9908       3.02494
Te         12.9186       40.5453       7.84299
Te         38.9022       40.5164       40.8769
Te         17.038       19.3341       25.5908
Te         38.7534       19.8478       24.9919
Te         17.1558       39.0262       28.0781
Te         36.8726       1.08243       26.2213
Te         41.5517       16.1532       7.73339
Te         23.2119       19.6003       5.96738
Te         41.0273       38.2166       4.84348
Te         20.5457       34.7627       4.47412
Te         40.2575       17.871       27.298
Te         23.3731       15.6322       24.5524
Te         2.89005       34.2143       30.3761
Te         19.5568       35.9402       28.9591
Te         20.2214       4.98187       17.8111
Te         40.5524       0.247363       16.606
Te         19.338       25.476       15.5034
Te         0.858165       22.6391       14.7906
Te         23.4975       7.82042       36.6399
Te         0.170221       1.63871       37.4032
Te         19.391       23.7489       33.6741
Te         40.1685       24.792       36.9624
Te         18.1271       40.7758       21.895
Te         38.0542       3.0733       17.0469
Te         15.2197       21.3541       22.032
Te         35.2372       25.0769       18.9304
Te         17.2152       2.75877       35.2021
Te         36.4749       1.56577       0.148496
Te         18.7509       22.8301       37.7277
Te         35.4679       20.8943       40.635
Te         4.087       7.21553       15.4413
Te         25.9896       6.24022       12.0856
Te         1.91108       28.8504       14.6872
Te         26.3865       29.0694       12.3127
Te         2.23532       4.25471       34.1628
Te         24.4492       41.1427       32.5219
Te         2.39183       25.8983       34.3163
Te         27.0093       25.5649       31.0123
Te         5.50507       10.8822       5.47278
Te         27.9751       13.0401       5.9403
Te         8.31832       30.5117       3.77938
Te         25.4282       29.3813       2.78241
Te         7.81293       7.57664       23.5221
Te         30.8324       11.3239       24.4652
Te         6.04525       31.0263       24.3816
Te         31.494       34.7067       23.155