30720
 Atoms. Timestep: 174020
Te         19.8523       21.5355       10.9379
Te         41.6881       19.8299       12.8018
Te         54.3489       20.701       11.486
Te         82.5071       20.4734       17.2692
Te         16.8403       40.9774       13.697
Te         39.3397       39.9464       14.6267
Te         59.1802       42.5613       20.937
Te         81.1009       40.7161       16.9651
Te         15.422       59.9229       15.9703
Te         34.3639       62.6081       11.4731
Te         58.714       61.1563       18.1392
Te         80.6247       61.7939       16.3509
Te         17.8       0.244579       15.2586
Te         37.4097       1.57363       13.073
Te         54.9343       82.666       14.9572
Te         0.922021       0.25872       14.6452
Te         19.4301       18.1405       35.1316
Te         41.3955       21.6838       38.1826
Te         58.6551       17.7289       33.8465
Te         77.4779       23.4684       35.2362
Te         17.5116       38.7302       35.8624
Te         35.7761       42.3349       34.8706
Te         61.7805       44.7917       34.6243
Te         79.8769       44.3197       37.6345
Te         19.9149       61.5489       35.7974
Te         35.2485       64.6732       35.4793
Te         58.7161       60.0001       38.939
Te         80.3483       66.4252       38.2497
Te         16.0372       83.1512       31.096
Te         39.1578       81.864       33.3299
Te         61.3135       80.0919       35.3964
Te         81.2897       0.181648       35.6849
Te         14.6439       21.5366       53.4243
Te         39.4481       24.0192       56.3542
Te         59.3224       21.2481       57.0345
Te         80.3827       21.9323       54.6635
Te         19.7777       40.5869       54.6642
Te         34.7171       41.5278       53.1962
Te         59.4092       43.4385       56.885
Te         79.9938       40.0617       54.2835
Te         18.7014       63.4821       55.4131
Te         37.14       59.2564       55.6255
Te         63.19       61.3121       58.6021
Te         78.608       64.1271       61.1056
Te         20.3429       82.256       54.1181
Te         42.1239       5.80822       57.146
Te         58.0755       1.80137       56.4332
Te         81.6706       3.60059       54.6185
Te         20.4425       19.7342       76.2156
Te         37.6161       24.4007       76.6013
Te         59.5666       18.5861       75.3468
Te         79.5721       19.2777       76.762
Te         15.6107       47.2448       77.0263
Te         41.4127       35.4903       78.0751
Te         59.7228       41.8722       77.0647
Te         79.97       40.0315       76.1505
Te         17.7404       59.8901       77.0907
Te         38.5556       65.562       77.4973
Te         57.4274       64.8085       81.0176
Te         0.843243       58.8324       81.4008
Te         18.3293       82.2137       75.2921
Te         36.4364       80.2978       73.8837
Te         57.65       83.0012       77.3275
Te         0.0124614       3.5035       78.4112
Te         14.3828       20.1297       4.7525
Te         37.531       20.6897       6.8588
Te         57.4171       15.4968       4.33784
Te         79.5652       20.7313       9.45677
Te         12.9332       42.4382       6.1806
Te         35.4284       43.8654       3.65538
Te         58.4561       35.9716       9.86737
Te         78.3147       40.0062       6.0111
Te         17.246       60.7033       10.3558
Te         38.5706       59.7671       0.833968
Te         58.5644       63.7412       3.41528
Te         78.5725       63.6638       8.51459
Te         15.1036       82.623       7.75962
Te         36.6035       82.5253       6.29262
Te         53.607       79.6859       2.4595
Te         77.6807       80.7149       5.78434
Te         19.5126       21.4506       24.6351
Te         39.0882       18.8094       24.904
Te         55.5047       20.9392       26.1193
Te         78.1204       12.6456       30.0153
Te         17.8365       39.6856       24.2861
Te         35.97       40.9801       27.1165
Te         58.7873       42.017       26.4978
Te         77.9966       39.3311       28.1733
Te         13.1052       58.4653       21.2837
Te         39.3203       58.1223       27.0199
Te         57.6914       60.4195       27.287
Te         81.1319       60.2092       30.0495
Te         11.9477       78.3549       25.6379
Te         39.702       78.5737       24.6484
Te         63.5083       78.6349       24.8906
Te         73.6376       79.6255       24.6224
Te         21.5362       18.6534       41.9165
Te         37.2805       19.6979       47.4414
Te         59.7299       19.9849       45.9986
Te         80.0065       22.4218       49.4584
Te         18.9387       36.4778       44.553
Te         39.3935       40.6765       46.9599
Te         57.3339       40.4038       46.2812
Te         80.3788       39.7972       48.7942
Te         21.2237       59.6698       42.099
Te         39.2785       62.378       49.0537
Te         55.9574       62.813       47.7894
Te         79.8453       59.3028       52.2524
Te         17.9771       77.8383       46.0231
Te         37.985       79.3499       48.0481
Te         56.8152       78.4037       44.9061
Te         77.6057       76.5874       47.4841
Te         17.7777       18.7741       65.6059
Te         38.3621       19.9604       68.3549
Te         57.3921       17.9388       69.2774
Te         77.6384       20.651       68.5217
Te         14.6746       38.9567       67.369
Te         36.1423       38.3875       70.1089
Te         60.4361       38.928       70.5914
Te         79.2479       41.3949       68.9662
Te         16.1053       58.831       65.1069
Te         35.3932       64.1179       65.2843
Te         60.5398       62.7569       69.3108
Te         80.3925       56.62       71.0812
Te         13.4784       78.7968       65.9309
Te         36.4769       79.2526       67.6208
Te         58.861       77.8233       67.0575
Te         77.6435       0.305841       66.927
Te         4.26907       6.45417       15.8913
Te         28.5897       7.19598       18.1111
Te         46.915       2.73166       10.4065
Te         67.6829       6.19949       16.1527
Te         9.16894       25.6183       14.2219
Te         27.5346       27.5617       16.8644
Te         51.0709       25.0369       15.8077
Te         69.3874       27.6426       15.4788
Te         3.40738       46.1856       17.7342
Te         26.3617       45.4941       8.15266
Te         44.6769       45.6103       11.7383
Te         67.4776       46.3983       15.3848
Te         5.13612       68.1912       14.3683
Te         25.0357       67.3764       13.2246
Te         47.1784       66.5087       15.3009
Te         70.2669       65.9791       17.4291
Te         6.19943       2.31756       41.2934
Te         25.88       4.27376       32.6173
Te         47.9748       5.23807       35.2914
Te         68.7024       3.60494       38.0924
Te         4.82335       25.2454       36.9258
Te         30.7119       26.7089       35.943
Te         50.626       28.6252       36.8348
Te         65.4027       26.0906       32.0055
Te         3.97853       45.616       37.061
Te         27.4981       45.5614       35.1637
Te         46.7821       47.8233       33.19
Te         72.4794       46.8707       34.9948
Te         2.06513       69.2529       38.3773
Te         26.2538       68.6157       37.5682
Te         48.3789       69.471       38.7774
Te         69.5877       66.0941       41.262
Te         8.67138       4.21101       56.6363
Te         28.1739       7.27854       59.9755
Te         48.4571       9.06006       60.1577
Te         69.4878       6.47666       56.7472
Te         8.51829       27.1903       58.1949
Te         28.2608       27.4789       52.4213
Te         51.24       28.4547       56.1022
Te         69.6315       25.5141       55.187
Te         6.12446       46.4151       55.626
Te         26.8436       53.0456       56.4918
Te         48.8651       45.8068       53.5481
Te         71.3008       45.685       60.8281
Te         8.43884       64.9956       55.2659
Te         24.1447       67.5771       55.0773
Te         47.2992       66.9888       56.4645
Te         69.6388       68.4485       59.5473
Te         7.13298       5.17606       77.1112
Te         27.1107       5.44489       79.3063
Te         44.7787       2.41928       77.0557
Te         66.8566       6.79958       78.8004
Te         4.43008       26.9626       78.3222
Te         29.8772       26.5694       79.7076
Te         46.8778       24.59       75.8887
Te         67.9884       25.7334       80.0154
Te         5.08512       46.9864       76.5689
Te         24.7803       49.4141       76.454
Te         46.4514       46.9819       78.2533
Te         70.7305       46.0029       79.9192
Te         3.71476       67.1517       78.0192
Te         28.8126       73.9358       80.9609
Te         51.7443       66.3792       77.5111
Te         67.552       73.3097       79.3409
Te         7.63093       4.56578       2.52149
Te         24.1951       8.51769       82.7524
Te         46.9193       3.60429       0.320879
Te         64.3234       8.96516       2.82528
Te         0.776951       25.3746       82.1371
Te         24.1768       27.0648       4.48356
Te         43.772       24.8243       3.81005
Te         64.2298       28.4422       2.01695
Te         2.669       45.3514       4.56862
Te         21.7961       49.5253       1.0941
Te         43.6679       50.122       2.46234
Te         63.1738       46.7623       0.904856
Te         2.9626       65.4712       1.40898
Te         27.0689       74.457       2.1747
Te         46.8112       68.1627       4.83982
Te         70.017       69.7738       1.28561
Te         4.32458       82.5451       22.2307
Te         27.0868       3.29173       24.6732
Te         45.4284       3.64579       19.9307
Te         62.0749       2.97678       23.1583
Te         3.82272       28.8907       19.9907
Te         27.4207       26.9802       24.0213
Te         44.1036       25.3004       22.1479
Te         65.3877       25.0403       21.2053
Te         3.33051       46.1422       22.1575
Te         25.0748       45.5583       23.0113
Te         47.948       44.6328       22.0695
Te         67.6096       49.5679       23.3083
Te         5.698       70.4758       23.2457
Te         22.3484       69.1154       21.7309
Te         42.2393       65.5375       21.0801
Te         65.5547       65.1759       23.7771
Te         5.16427       2.0543       44.7872
Te         25.7776       6.20346       41.741
Te         46.9809       5.95482       42.6071
Te         65.7953       10.1712       42.8947
Te         8.20006       28.7882       42.1267
Te         26.2004       26.9755       40.0509
Te         48.9774       28.0148       40.0715
Te         65.6531       25.4033       41.8349
Te         3.57103       47.4969       40.4454
Te         23.8379       46.2187       42.9389
Te         46.1852       48.7494       42.9014
Te         62.4468       46.0229       40.9702
Te         5.87798       67.3866       44.7652
Te         29.8268       66.4861       42.7198
Te         42.6873       67.4395       44.1921
Te         63.2659       72.2819       49.0852
Te         5.16802       3.80455       65.639
Te         27.5947       10.2591       62.386
Te         44.8156       9.77099       67.417
Te         67.7689       10.1741       68.772
Te         5.14553       25.3853       59.3782
Te         23.0766       22.8104       63.3238
Te         46.7334       30.0667       67.1414
Te         67.4495       25.0277       64.807
Te         2.70714       45.396       61.6391
Te         23.6311       46.467       64.2436
Te         45.0567       49.3098       64.1794
Te         67.3297       47.4073       63.5498
Te         2.18817       68.0499       64.9047
Te         23.9924       67.9151       63.0434
Te         45.4812       66.2322       63.7226
Te         66.8739       70.3441       64.4956
Te         12.9069       2.05053       5.36202
Te         36.1002       4.21174       3.95485
Te         63.0357       82.8743       8.08935
Te         81.9839       2.15676       7.70026
Te         20.8479       22.0756       1.78529
Te         38.4187       24.8621       11.1099
Te         62.9387       23.6006       11.1031
Te         81.76       22.8125       7.31009
Te         20.2249       41.9009       8.72618
Te         37.3931       41.4159       8.14938
Te         60.5834       40.2962       10.0987
Te         77.4256       43.3274       6.45129
Te         16.6365       63.1773       7.36959
Te         39.3249       63.4609       6.56566
Te         61.7368       59.097       11.3019
Te         77.8372       66.8696       5.967
Te         15.9996       0.489781       24.4748
Te         38.2615       1.39143       27.3722
Te         58.5269       1.74085       29.0107
Te         81.8349       4.97081       27.159
Te         16.1347       21.0941       27.9971
Te         38.2699       21.468       27.5798
Te         59.1533       24.4828       25.402
Te         76.3731       18.1201       29.3835
Te         17.3271       42.621       28.541
Te         38.4948       43.5673       25.5644
Te         61.7981       41.635       32.7896
Te         82.087       39.2482       26.4375
Te         19.8775       59.527       28.5489
Te         37.7111       63.2147       27.0647
Te         64.2132       66.9332       27.564
Te         82.2399       64.3391       30.7903
Te         19.9384       2.00812       45.7864
Te         39.629       2.47049       46.7746
Te         64.1178       2.83708       50.0351
Te         79.4053       3.87834       50.0089
Te         21.9486       21.0142       44.7454
Te         41.1687       20.5727       47.6116
Te         64.0937       22.5701       46.3746
Te         0.0994175       24.2494       45.902
Te         17.7961       41.0663       46.9961
Te         41.4906       42.7933       50.5069
Te         63.3389       43.6884       48.5072
Te         83.2951       38.8687       45.544
Te         17.8527       60.6706       48.4821
Te         40.693       65.3208       51.408
Te         60.6592       61.5137       48.8989
Te         79.9561       68.4419       48.9718
Te         19.2795       0.860394       65.4557
Te         38.1615       2.10618       65.5059
Te         60.8997       4.96715       69.2132
Te         80.6209       3.24933       70.351
Te         19.3425       24.3406       72.247
Te         42.0061       25.7601       70.3789
Te         59.6402       25.3076       72.1374
Te         80.4089       17.7212       69.3953
Te         15.1891       42.5714       67.8944
Te         39.2241       40.8644       68.8265
Te         59.5767       42.5122       69.0388
Te         80.8208       45.3878       71.3785
Te         20.3577       60.406       70.0915
Te         40.3639       64.4187       67.5735
Te         66.0753       66.2332       73.7101
Te         80.0765       63.0916       73.1735
Te         2.74694       2.39676       11.1934
Te         22.4916       1.08249       13.5807
Te         43.0359       4.10892       13.3632
Te         67.6112       4.50309       13.1989
Te         3.69327       19.2719       11.4205
Te         24.4923       23.7817       15.0403
Te         45.7875       20.9353       12.5237
Te         66.8959       23.4644       11.2011
Te         2.32921       44.3617       13.7647
Te         28.9683       41.0479       8.01837
Te         45.4907       39.1341       7.38193
Te         62.7248       45.8127       15.5207
Te         3.33019       62.5561       13.6352
Te         22.7033       62.9918       9.72
Te         45.6618       63.1692       14.9289
Te         63.6249       65.5807       14.0116
Te         4.35405       2.82433       33.4023
Te         25.4636       2.26153       28.3372
Te         49.0336       1.26534       30.5605
Te         67.0602       0.857634       33.0133
Te         2.58824       23.1895       30.5798
Te         23.3055       22.6071       30.3491
Te         46.3193       22.2374       33.2401
Te         65.0862       22.3497       29.6059
Te         3.39347       41.3991       32.6249
Te         21.2097       44.7333       33.6401
Te         44.2554       45.8519       29.5138
Te         67.6657       48.9645       32.9574
Te         2.43308       64.276       31.935
Te         24.0821       62.1422       32.7946
Te         40.34       68.0165       34.2924
Te         67.2645       67.8317       34.9552
Te         6.33997       1.64286       58.2199
Te         26.3031       3.25339       52.2127
Te         44.3793       3.4564       52.9426
Te         67.2606       3.35356       58.8957
Te         3.5848       24.4071       51.6509
Te         24.8415       23.9968       51.3923
Te         44.8307       25.105       52.9813
Te         66.8009       23.4622       54.8572
Te         3.14623       43.6236       55.1002
Te         25.669       45.6539       54.6071
Te         44.5497       42.117       54.1206
Te         66.9575       42.3673       55.0558
Te         2.25594       68.4574       53.5792
Te         25.8224       62.2626       53.9644
Te         43.2541       60.7803       56.3615
Te         63.8687       66.8993       54.7114
Te         0.943203       2.14987       71.5683
Te         24.4263       4.05365       76.5607
Te         43.0328       1.33804       72.0999
Te         66.6629       3.63369       74.0425
Te         7.17071       25.4966       75.8932
Te         25.7017       23.9661       76.1191
Te         43.7661       21.1128       75.6305
Te         63.5508       25.6       77.0959
Te         1.85337       44.4623       73.6718
Te         24.971       44.538       74.3483
Te         42.6481       46.4082       73.217
Te         67.5326       43.5494       76.2981
Te         4.40722       64.315       75.878
Te         23.8002       65.6916       75.6651
Te         45.1662       65.7981       72.5884
Te         65.1273       69.6889       74.1911
Te         7.477       11.6684       4.12824
Te         33.8174       13.0502       1.27346
Te         50.8818       7.87718       4.06637
Te         69.122       7.50987       3.49722
Te         9.83671       34.0255       4.93329
Te         31.2902       34.054       0.227922
Te         53.0991       27.634       2.9886
Te         68.8632       36.8961       1.14904
Te         9.25532       53.9095       3.33679
Te         32.8376       52.7733       0.677846
Te         53.1115       51.6203       2.92242
Te         72.6541       51.9466       1.42341
Te         8.07526       68.279       4.36811
Te         27.1159       72.9506       10.2605
Te         52.9969       72.6239       1.23552
Te         73.3912       73.9076       7.23216
Te         13.9459       10.1241       20.2712
Te         30.9623       13.2882       27.2792
Te         49.9774       10.1135       23.2591
Te         72.9474       8.60819       24.5542
Te         11.6944       29.764       26.4536
Te         30.7047       31.2662       24.3519
Te         51.7803       32.0421       24.3592
Te         72.4546       32.1584       29.9898
Te         10.5431       52.7544       26.2863
Te         28.7826       50.0294       26.057
Te         50.1164       52.0421       23.5956
Te         72.8711       54.387       24.2756
Te         12.8183       70.1447       28.4999
Te         29.0254       67.6729       27.0955
Te         49.0492       70.3724       18.8351
Te         74.6611       71.8679       24.7114
Te         8.64102       10.1768       43.8005
Te         34.4351       6.11282       40.1102
Te         52.0587       12.6902       49.3847
Te         74.2173       12.818       46.0936
Te         14.624       29.7412       43.9941
Te         33.0737       29.7115       43.7009
Te         57.3222       33.3078       45.8852
Te         70.7983       30.1154       45.0238
Te         10.1249       50.2185       47.1372
Te         35.5949       54.1939       45.5197
Te         54.4113       52.3795       49.7183
Te         72.2737       48.5133       47.771
Te         10.4081       67.9286       45.5153
Te         32.495       73.1399       43.4865
Te         51.6509       77.8976       43.6107
Te         70.8654       75.6536       48.9278
Te         8.79983       8.54042       67.4662
Te         29.8783       8.56383       68.6265
Te         52.1257       12.9608       65.6697
Te         75.287       10.3652       65.1068
Te         7.88874       25.6637       67.6844
Te         28.187       35.853       64.5329
Te         52.0821       30.1773       63.0332
Te         71.3549       31.3047       67.5441
Te         13.8854       50.6192       68.5972
Te         29.5609       52.1128       67.3561
Te         51.9475       50.0929       64.4061
Te         69.9413       46.5646       69.2468
Te         8.86136       73.452       70.7748
Te         29.4272       75.1942       64.6132
Te         52.9947       72.5186       66.5505
Te         75.1571       74.9609       66.21
Te         15.5771       8.5874       12.0598
Te         39.5829       9.90581       16.5669
Te         61.8772       8.88412       20.521
Te         81.1744       8.3012       23.1649
Te         15.4083       30.9803       16.0674
Te         39.5884       28.2198       16.1052
Te         61.1924       30.9547       19.1889
Te         1.77892       30.2766       15.6836
Te         19.5573       51.1286       18.7316
Te         37.3517       54.0235       14.4983
Te         57.7497       50.6522       17.1067
Te         2.64061       51.0652       16.1409
Te         15.6975       71.6494       16.512
Te         38.5014       72.4431       14.0163
Te         57.2577       71.8472       17.8378
Te         80.0236       71.5959       17.6545
Te         21.2712       10.035       35.7767
Te         39.0333       7.47356       36.3279
Te         58.2869       10.5604       35.8738
Te         82.7252       5.10638       38.3001
Te         18.7401       27.7523       32.2251
Te         41.7414       29.2502       36.8094
Te         61.0097       31.7629       36.9846
Te         82.5758       29.5797       36.7756
Te         18.054       51.3574       38.4097
Te         40.6753       54.0372       35.5992
Te         58.3811       53.1129       38.3852
Te         79.9963       50.4654       42.4778
Te         16.2975       72.0328       36.61
Te         39.4527       70.9668       36.428
Te         54.0513       71.252       37.487
Te         83.2618       75.4652       40.1478
Te         20.2407       10.3512       57.0573
Te         37.4073       8.55495       58.8391
Te         59.2335       13.6291       55.5521
Te         0.313714       10.0364       58.3752
Te         17.9596       28.735       56.3754
Te         40.0361       34.8634       55.3971
Te         60.1503       28.7761       57.3004
Te         -0.0505267       28.5519       58.0972
Te         17.1387       51.4764       58.9561
Te         40.8893       51.0416       59.25
Te         59.8889       52.6142       59.0102
Te         82.7049       47.5604       60.4475
Te         16.7985       72.0268       55.8005
Te         39.8621       75.6334       60.5627
Te         60.897       70.1375       61.3456
Te         83.2842       71.4643       60.2929
Te         17.4556       11.4579       76.5626
Te         36.4225       13.7923       77.7981
Te         57.0193       11.3248       81.6077
Te         0.362263       7.83282       80.4409
Te         18.8218       33.2734       77.6841
Te         43.5147       30.0251       80.6213
Te         58.3731       30.9542       77.9034
Te         80.2537       30.5801       76.4488
Te         14.4195       51.6119       81.6731
Te         39.3775       53.7187       76.6207
Te         60.2925       51.966       78.6695
Te         82.5179       53.5394       80.961
Te         14.8932       70.2773       82.119
Te         37.2348       70.1653       79.7245
Te         58.4724       73.6513       82.0196
Te         80.1875       73.0158       78.1302
Te         3.84799       17.5307       5.95009
Te         25.2019       15.9179       82.0081
Te         46.4375       9.79178       3.33391
Te         66.2337       11.6319       4.54778
Te         1.25564       33.3841       0.973233
Te         23.5737       33.9015       82.6092
Te         43.9899       35.484       2.67837
Te         62.995       33.1099       82.4591
Te         0.271209       53.079       4.57706
Te         22.8406       54.9977       3.95126
Te         45.6176       57.6908       5.99355
Te         67.0217       56.5541       2.26096
Te         2.20378       77.3866       3.3207
Te         19.6643       77.1348       2.58864
Te         41.8748       76.872       0.193277
Te         63.4751       80.7873       4.9165
Te         81.1949       17.403       19.3442
Te         22.1324       15.2533       23.3889
Te         46.6746       8.12115       24.473
Te         64.3715       6.524       22.5248
Te         0.256776       34.999       21.9591
Te         24.1357       36.8853       22.1141
Te         42.87       34.8604       22.5653
Te         66.4683       35.4189       24.2031
Te         82.9899       59.0175       22.3612
Te         21.9504       59.7042       20.7195
Te         40.6483       53.7039       22.4148
Te         66.4071       53.2591       23.9491
Te         1.23788       74.4397       21.4466
Te         21.3915       78.8405       21.6498
Te         45.6107       71.6582       21.1692
Te         67.0536       77.5743       21.7889
Te         2.51937       14.5181       46.0586
Te         22.5858       15.1638       41.7673
Te         40.5978       11.6601       41.1979
Te         63.3353       14.0263       45.9908
Te         79.9952       32.8032       42.3785
Te         24.1675       32.6212       40.7823
Te         47.5791       30.9991       41.5972
Te         59.0462       37.0554       43.4519
Te         2.73179       57.2784       47.0601
Te         18.3183       54.3997       40.7266
Te         46.5016       57.5733       41.088
Te         63.1726       52.0016       43.7284
Te         5.13214       75.7868       45.9638
Te         24.5235       72.5276       44.4629
Te         42.2196       73.6451       42.1609
Te         61.3464       79.8099       49.1984
Te         1.39006       9.95297       63.3125
Te         25.2086       16.8627       59.5926
Te         45.8544       16.0509       66.7269
Te         65.7682       16.4803       64.4898
Te         0.764886       32.2028       65.6251
Te         25.7105       31.1605       63.7613
Te         44.3666       34.0803       61.5524
Te         62.2486       36.7038       63.6869
Te         3.08549       55.1202       62.1715
Te         22.0088       56.1451       63.8919
Te         44.1257       56.8441       63.7339
Te         68.202       59.4952       65.2436
Te         2.11855       76.5074       67.1858
Te         21.059       79.9711       67.1788
Te         42.053       75.0774       64.7434
Te         62.3846       78.362       63.0506
Te         9.30873       18.9691       11.8297
Te         29.2134       17.758       13.5669
Te         50.241       17.1737       18.3388
Te         73.2829       18.2106       17.3846
Te         7.69138       36.2912       11.4902
Te         31.0715       38.4203       15.6015
Te         46.5595       36.1696       13.9653
Te         69.4698       40.7102       15.4734
Te         9.06612       60.6614       13.2188
Te         25.6822       60.758       16.7756
Te         48.8389       59.0662       17.0809
Te         70.0607       61.0832       15.7441
Te         10.4587       82.9485       15.2919
Te         28.22       79.7921       13.9594
Te         46.2357       77.4227       15.4853
Te         69.8681       79.1311       15.1773
Te         3.64991       19.7918       34.8324
Te         28.6046       17.4093       34.6962
Te         50.5011       12.3513       36.6752
Te         70.6887       18.1733       37.8445
Te         6.40615       38.7361       36.2703
Te         31.7445       39.341       38.45
Te         50.9965       40.4259       35.9451
Te         67.3339       41.2996       39.2387
Te         9.45665       60.6998       38.0674
Te         31.3092       59.461       34.3044
Te         53.2826       59.7629       37.5476
Te         71.1671       58.4636       36.9616
Te         8.30104       81.0476       35.3795
Te         32.4259       80.3279       36.6795
Te         46.5533       0.171959       37.0438
Te         69.2186       80.9369       41.5533
Te         7.78847       16.0512       53.4201
Te         28.5888       19.629       55.6487
Te         50.5384       23.643       57.3196
Te         69.2147       16.9121       56.4652
Te         6.6298       35.0386       55.6641
Te         28.8947       40.1958       55.7643
Te         50.8105       40.5522       59.189
Te         72.0527       39.3057       57.1808
Te         9.05889       58.6694       57.1811
Te         29.7635       58.4512       53.2594
Te         50.4931       59.4035       57.3929
Te         71.0127       62.3158       58.4729
Te         12.9209       81.5886       55.6444
Te         28.3964       1.35605       54.651
Te         46.0582       1.47914       56.7578
Te         67.5427       82.5224       58.8659
Te         9.4712       20.8545       77.3619
Te         27.2584       18.2591       79.9872
Te         49.9074       18.0098       76.1455
Te         67.1017       17.4359       80.4866
Te         5.94769       42.8064       81.2234
Te         26.948       37.9305       76.96
Te         46.0438       40.14       77.9922
Te         69.6063       36.4535       77.1983
Te         6.1756       62.3246       77.9297
Te         32.5041       62.8796       76.1192
Te         52.2109       62.2285       78.6915
Te         70.2134       62.9406       78.5569
Te         8.84316       80.4687       77.0998
Te         29.0278       81.6411       78.1794
Te         50.5844       82.5703       79.1191
Te         72.3542       79.1772       80.0265
Te         4.67902       83.1093       17.0385