 240
 config_type=same virial="67.91604916       1.91875009      -7.76434563       1.91875009      61.27796013       3.38205657      -7.76434563       3.38205657      61.74713514" energy=-50219.958180274218 cutoff=4.91000000 nneightol=1.20000000 pbc="T T T" Lattice="20.07242633       0.00000000       0.00000000       0.00000000      20.07242633       0.00000000       0.00000000       0.00000000      20.07242633" Properties=species:S:1:pos:R:3:force:R:3:Z:I:1:map_shift:I:3:n_neighb:I:1
 As             17.31647682      2.29276601     18.17067464     -0.36000915      1.29511134      0.13890236      33      -1       0      -1      19
 As             12.36517754     10.83564379     20.00204576      0.30858887     -0.00046967      0.26084439      33      -1      -1      -1      19
 As              5.11052870      1.35840314      0.71603495     -0.54474887     -0.47943388      0.13557861      33       0       0       0      15
 As              3.95586408     20.06142474     18.93581194     -0.12578719      0.34572409     -0.02212696      33       0      -1      -1      17
 As              3.62137117      6.54078881      9.46655657     -0.26301739     -0.10787211     -0.04062344      33       0       0       0      18
 As             19.46546009      1.64981572      1.79200563      0.18522686     -0.29214812      0.49701658      33      -1       0       0      16
 As              0.34650522      2.02161561      4.22071726      0.75309075      0.01372807     -0.98943623      33       0       0       0      20
 As             13.61699910     19.38237928      3.15490148      0.94633278     -0.47751406      0.96029141      33      -1      -1       0      18
 As             14.05388778     18.34350391      9.19270737      0.68568272      0.15979765      0.11343645      33      -1      -1       0      16
 As              7.32968616     16.13948092      3.80436065      0.40681263     -0.23897536      0.64556646      33       0      -1       0      15
 As              8.28215218      0.58733905     19.70798729      0.44115149     -1.13623525     -0.84847854      33       0       0      -1      21
 As             15.64798115      7.44594639     16.41221884     -0.35671479     -1.01870406      0.00751201      33      -1       0      -1      17
 As              5.98822199      5.90059024     14.59020886      0.05894895      0.22189602      0.43413273      33       0       0      -1      19
 As             12.40068533      5.45629308      7.49484236     -0.72556559      0.56335358      0.64438983      33      -1       0       0      17
 As             12.02338199     18.74165683      0.00534998      0.12898649     -0.47263263     -0.22112300      33      -1      -1       0      18
 As             16.49725762      7.97231894      6.72123823      0.17582916     -1.04548187      0.25776785      33      -1       0       0      17
 As              1.98098010      5.43591975     15.02953177      0.60143539     -0.57932928      0.37160781      33       0       0      -1      19
 As              1.05454430     11.62771621      3.56670717     -0.38467698     -0.11166547      0.03035232      33       0      -1       0      15
 As              3.26407074      9.81332638     11.35169738      1.99248580     -0.30310229     -1.07452187      33       0       0      -1      19
 As             10.17163225     13.06654898      4.31734501     -0.08199595      0.20369139      0.71628529      33      -1      -1       0      18
 As              9.92244272      1.17218039     11.53225264     -0.01142963     -0.27499311      0.77576360      33       0       0      -1      17
 As             17.56900018      4.23484629     13.95069823      0.44261853     -0.03523846      0.12552757      33      -1       0      -1      19
 As              3.78509860      7.38630812     11.84997063      0.97161287      0.11839713     -0.19445045      33       0       0      -1      20
 As             12.38412208     14.55300771      0.73746133      0.15818451      0.12584400     -0.28508966      33      -1      -1       0      18
 As              4.79535077      9.44565407      6.58142962     -0.68953048     -0.25544101     -0.48032457      33       0       0       0      19
 As              5.72188711      3.46187717     14.74795658      0.51048193      0.46176253      0.47832954      33       0       0      -1      21
 As              6.46104181      9.86137567      9.98504438     -0.32290042     -0.57068638     -0.53414242      33       0       0       0      16
 As             19.91695936     18.67053541     11.64195107     -0.93409582     -0.50805281      0.07061368      33      -1      -1      -1      18
 As             19.72729697     12.86943048     11.26279562      0.21929655     -0.44921881     -0.16838214      33      -1      -1      -1      18
 As              6.49908965     14.20142238      9.94678487      0.21561094     -0.34535438     -0.53426694      33       0      -1       0      15
 As              6.16808931      0.82885023     13.44485776     -0.54120494      0.18191863     -0.42429947      33       0       0      -1      18
 As             11.38196632      0.05307647      3.14606422     -1.59883562     -0.13393699     -0.15236818      33      -1       0       0      17
 As             13.40956164     12.23626997     13.59900707     -0.11855928      0.12776391      0.01544103      33      -1      -1      -1      18
 As             18.51061807      0.24654365      7.95083435      0.59857007     -0.86543405     -0.23622575      33      -1       0       0      17
 As              8.42312499     16.98425938      7.72551070     -0.17830789      0.23908434     -1.27604763      33       0      -1       0      16
 As             19.56266994     17.47364245      4.75650916     -1.01490384      0.12589472      0.01868352      33      -1      -1       0      19
 As             15.75011234      4.37989376     12.29109273     -0.62675457      0.56494695      0.22715236      33      -1       0      -1      18
 As             19.33337747      5.98303605     17.22434707     -0.76390259      0.76150454      1.05012845      33      -1       0      -1      16
 As             11.62088982      0.73476782     14.83188409      0.24426992     -0.15866504     -0.38138314      33      -1       0      -1      20
 As             11.53976696     14.16004073      6.30556955     -0.73179132      0.42517574     -0.30844130      33      -1      -1       0      17
 As             16.43851366     16.00390572     14.57555065      0.18484308     -0.50783264      0.24390818      33      -1      -1      -1      16
 As              4.03190684      5.25139567      0.55045011     -0.09598563      0.56816082     -0.28280847      33       0       0       0      15
 As             14.91739912     14.65831397      6.45897801      1.19046165      0.59718933      0.59974090      33      -1      -1       0      17
 As             12.85958778     18.10817881      5.40707960      0.35996311      0.64144477     -0.07986244      33      -1      -1       0      17
 As             18.86754808     15.11742810     10.95349155     -0.37781900      0.36624302      0.54664146      33      -1      -1      -1      16
 As             16.08359981     11.14320157      1.86317996      0.28832328     -0.19291312      0.40223371      33      -1      -1       0      17
 As             15.63988473      6.71965070      2.10977653      0.14384129      0.51996300      0.03472943      33      -1       0       0      16
 As              7.99300977     13.04898030     14.63518892      0.81128001     -0.30187306      1.33456287      33       0      -1      -1      17
 As             16.75882990     13.95196826      4.87144645     -0.81842193      0.71451655     -0.60828116      33      -1      -1       0      19
 As             17.78977290      6.57222193     15.40149041     -0.58758040      0.40334548     -0.76972035      33      -1       0      -1      21
 As              1.41877696      0.48552536     19.32772056      0.70098403      0.62740527     -0.00153820      33       0       0      -1      19
 As             11.23300294      4.61760015     18.30132849     -0.33828998      0.04966033     -0.07185068      33      -1       0      -1      17
 As              9.84989252      5.80988927     12.73237359     -0.46661841     -0.61776801     -0.06281260      33       0       0      -1      18
 As             12.15578212      5.72416257     15.09509682     -0.33664713     -0.18053702     -0.06612426      33      -1       0      -1      17
 As             12.26765018      8.52075818      1.26902511     -0.44754508      0.39801052     -0.65713555      33      -1       0       0      18
 As             11.22998663     12.04502534     12.46471577     -0.23801702      0.28402254     -0.12988949      33      -1      -1      -1      17
 As              0.84615962     12.86228659      9.06819198      0.63993049      0.02005191      0.22527856      33       0      -1       0      19
 As              6.35150213     14.04864893     16.50926994      0.23085196      0.25233573     -0.55350237      33       0      -1      -1      17
 As              0.70327648     15.72984486     18.68762784     -0.66430011      0.18486791     -0.21187936      33       0      -1      -1      17
 As             18.82177425      2.00425860      5.91260257      0.27541391     -0.30622009      0.79104186      33      -1       0       0      20
 Te             10.53173733      3.39239620      4.38952478     -0.84175063     -0.04078142      0.11613432      52      -1       0       0      18
 Te             17.82516956      3.56078039      1.02416953     -0.11691650      0.37422997      0.12911265      52      -1       0       0      21
 Te             16.96224032      2.15973086     15.47155347     -0.24373339     -0.60688916      0.01596458      52      -1       0      -1      17
 Te              6.26058949     18.46516175     16.45883935      0.31067311     -0.44497864      0.25850475      52       0      -1      -1      19
 Te             18.96444042     16.18948816      7.11912656     -0.01704283      0.46965807     -0.14103001      52      -1      -1       0      19
 Te              6.54338178     17.96493055      0.66602770     -0.12607286      0.08028365     -0.21575902      52       0      -1       0      18
 Te              3.35773510     18.99158721     13.77585809      0.05818516      0.59711738     -0.74592147      52       0      -1      -1      17
 Te             10.07653911     17.90852026      1.93176133      0.81720995      1.24216540     -0.30281077      52      -1      -1       0      20
 Te              4.88393503     19.37883908      2.46787074      0.13848412      0.67589869     -0.28997172      52       0      -1       0      18
 Te              8.40555630      9.49783094      8.10858207     -0.00419321     -0.79542665      0.02731077      52       0       0       0      17
 Te              2.10930027     13.80099400      0.61506265     -0.35487209      0.10302074     -0.31065399      52       0      -1       0      17
 Te              4.96521665      9.49973598      2.26800581     -0.05561084     -0.03809251     -0.18459141      52       0       0       0      17
 Te             14.77092287      8.05931567      8.65109452     -0.58022530      0.23634653      0.23430770      52      -1       0       0      17
 Te              4.31840337     16.00459365      3.20538499     -0.05289859     -0.11981284      1.15858077      52       0      -1       0      16
 Te             17.85983596      5.54445400      4.23722759      0.37728575      0.01389264      0.00986819      52      -1       0       0      21
 Te             14.58089534      2.03891971     19.06698967      0.42412510      0.39513816      0.33436077      52      -1       0      -1      17
 Te              1.91239344      2.76146353      0.77477361     -0.45839414     -0.79115722     -0.54004360      52       0       0       0      19
 Te              3.49341613     16.11302206     11.73868466      0.46645033      0.24291956     -0.56440419      52       0      -1      -1      19
 Te              3.86067039      0.88113294     11.44784888      0.29905376     -0.51387836      1.19789230      52       0       0      -1      20
 Te              1.75967820     19.86387760      4.93378352     -0.01480706      0.42444344     -0.26431488      52       0      -1       0      19
 Te              2.43739542     12.64982195     18.07420564      0.60454913     -0.23384009      0.27027477      52       0      -1      -1      16
 Te             16.30283263     10.31313423      5.94398277      0.06389172      1.14430793     -0.44307510      52      -1      -1       0      20
 Te             13.84861995     17.18021370      1.72347719      0.00566191      0.80447661     -0.59702644      52      -1      -1       0      19
 Te              8.14398402     14.41595081      7.74329105     -0.44081361     -0.20333522      0.12886457      52       0      -1       0      19
 Te             19.76328102     10.77436507      1.09863005      0.33816654     -0.03631697      0.00648896      52      -1      -1       0      16
 Te              9.96133724      9.90132855     13.41114917     -0.34912387      0.07168920     -0.22384688      52       0       0      -1      19
 Te             15.65957013     18.23083680     13.49634670      0.25084789      0.41420457     -0.52521238      52      -1      -1      -1      19
 Te              7.54781300     11.69227582     11.19828892      0.27244969      1.45288802      0.58407349      52       0      -1      -1      16
 Te              3.35694133     13.11634456      6.13300487     -0.03908579      0.13277555      0.30257636      52       0      -1       0      17
 Te             19.23590303     17.16830721      0.25009443     -0.06460059     -0.30115100      0.53503998      52      -1      -1       0      15
 Te              6.61090479     12.97844098     18.83452742      0.13557394     -0.21467877     -0.00973367      52       0      -1      -1      19
 Te             10.54332631     14.44145716     18.90686595      0.24271608     -0.13295956     -0.09229585      52      -1      -1      -1      19
 Te             10.71541473     16.33300102     13.38357904     -0.25165745      0.06220389      0.63381844      52      -1      -1      -1      20
 Te             17.64578379      2.16745685      9.33844277     -0.35627979      0.41535304      0.61199122      52      -1       0       0      19
 Te             18.22798453     18.65179725     16.61378243      0.34747948     -0.11052869      0.12463056      52      -1      -1      -1      18
 Te              1.91826731      5.67733039      6.10088381      0.27733374      0.10103229      0.44096770      52       0       0       0      19
 Te             13.86613572     15.92024281     16.23912498      0.40261589     -0.31699462     -0.06128509      52      -1      -1      -1      20
 Te             18.84034837      7.76128308      8.06974046      0.35863277     -0.07886357     -0.40313185      52      -1       0       0      16
 Te              0.93103435     18.03816867     16.87868853     -0.39548534     -0.57190895      0.08749747      52       0      -1      -1      18
 Te              4.55277594      5.90821040      4.80254758      0.16405330      0.35098234      0.38294436      52       0       0       0      18
 Te              6.79632847      1.33554268      8.96256821     -0.24549745     -0.11386595     -0.38819899      52       0       0       0      19
 Te              1.59076484     10.20147785     13.05210245     -1.23332316      0.83373087      1.06495096      52       0      -1      -1      17
 Te             17.26260658     18.53575398     10.52173588      0.91726317     -0.25277131      0.27479368      52      -1      -1      -1      19
 Te             17.75262466      5.50349568     10.75171629     -0.30972961     -1.05627969     -0.63344212      52      -1       0      -1      16
 Te              1.09122157      0.20373322      8.84360918     -0.86859759     -0.09545693      0.05337591      52       0       0       0      17
 Te             20.06724039     10.85469417     16.81158887      0.07333445     -0.66318300      0.23910462      52      -1      -1      -1      17
 Te              7.72831534      2.87708346     12.69416700     -0.47723114     -0.65020684      0.23304178      52       0       0      -1      20
 Te              9.82205780      2.12713884      9.15095529      0.42328123      0.26162293     -1.02244108      52       0       0       0      18
 Te              7.38318597      5.85190594      3.56792428      0.03478283     -0.11006407     -0.29293249      52       0       0       0      18
 Te              5.90895124      3.57978314      7.37323744     -0.03904424     -0.10499521      0.32500818      52       0       0       0      18
 Te              4.44789303     19.33454695      8.27061612      0.65826098     -0.45235390     -0.00568102      52       0      -1       0      16
 Te             18.41583714      9.64123796     14.59687650      0.44291866     -0.30191059     -0.02335302      52      -1       0      -1      15
 Te              9.74453334     16.96076392      5.15931884     -0.85045123     -0.12576512      0.65188918      52       0      -1       0      17
 Te              5.71008646     17.26075446     10.01277326     -0.68279051     -0.03750844     -0.14664533      52       0      -1       0      16
 Te              6.97175071     13.48190016      4.55071215     -0.00632233      0.31510085      0.11180428      52       0      -1       0      20
 Te             13.46237352     12.60971032      7.02032918      0.19727283     -0.82419419      0.05194619      52      -1      -1       0      17
 Te              6.77653725      7.81261326     12.01999526     -0.70914069     -0.01546475     -0.09035778      52       0       0      -1      19
 Te              5.83989362      7.39916713      7.95903659      0.18369776      0.03459865     -0.10869439      52       0       0       0      18
 Te             19.58023863      2.66700011     11.85113482      0.32327652     -0.13177451      0.32251011      52      -1       0      -1      19
 Te             15.30343388      4.85916954     17.56704222     -0.32371509      1.27029589     -0.57930303      52      -1       0      -1      20
 Te             16.28913223     11.06662963     15.50018196      0.03389190      0.28251358      0.17776695      52      -1      -1      -1      17
 Te             16.94420067      7.85949836     11.71608880     -0.18156586      0.87183434      0.32346783      52      -1       0      -1      17
 Te              2.12390557      9.62425137      9.02776284     -0.42138557      0.18897051      0.15902708      52       0       0       0      18
 Te              9.52280810      5.10618945      0.25125862      0.02093034      0.87735101     -0.56005788      52       0       0       0      19
 Te              6.66699757      2.31325046      4.36534138      0.12431961     -0.04201734      0.35417669      52       0       0       0      14
 Te             17.03119211      7.31418127     19.99638357      0.07558166      0.29224074      0.15113624      52      -1       0      -1      17
 Te             11.52569084     12.45815397      2.08040720      0.71958397      0.03545947     -0.03931748      52      -1      -1       0      19
 Te              3.39181411      3.40610189     13.67452066     -0.58205580     -0.08130677     -0.74618436      52       0       0      -1      18
 Te             18.50574964     14.47744120     17.75325967      0.52239117      0.23158101     -0.24046240      52      -1      -1      -1      18
 Te              9.98160473     10.38764238     16.45423551     -0.21351575      0.34594380      0.18850450      52       0      -1      -1      19
 Te             14.53411608     19.58320202     18.34006426     -0.09317163     -1.12510294     -0.16288143      52      -1      -1      -1      19
 Te             17.05310534     16.53546421      3.68339603      0.41529836     -0.80147226      0.53856709      52      -1      -1       0      18
 Te             10.30334446     14.30757533     15.51843857     -0.35618920     -0.15895939     -0.77937296      52      -1      -1      -1      19
 Te             10.78521320      1.29622482     18.80505225      0.03104577     -0.38990239      0.33995466      52      -1       0      -1      17
 Te              8.05307138     16.63150987     17.79680566     -0.39101824      0.30245637     -0.18575580      52       0      -1      -1      19
 Te             17.12629054     10.81622299     18.28846419     -0.27864059      0.19091810     -0.07561599      52      -1      -1      -1      17
 Te             11.82679266     16.98436522      9.15360118     -0.44012666      0.06787630     -0.39808940      52      -1      -1       0      20
 Te             18.18332198     10.13559529      3.74371694     -1.02555125     -0.40109791     -0.14480105      52      -1      -1       0      17
 Te             17.04289222      0.16912503      2.24869084      0.36281242     -0.63427305     -0.31440977      52      -1       0       0      19
 Te             12.63098324      2.27694361      5.72950726      0.16508475     -0.84094690      0.31676953      52      -1       0       0      17
 Te              8.69088864     15.02249371     11.11891234      0.90373852      0.12626784     -0.13614770      52       0      -1      -1      17
 Te              9.52111474      5.38268453      7.80287640      0.55850244      0.12819883     -0.26164662      52       0       0       0      19
 Te              5.45465263     11.62358862      7.89098441     -0.32624500      0.18528367     -0.05517874      52       0      -1       0      15
 Te             14.74970287      9.32373164     18.80996831      0.65838799     -0.37701041     -0.02229925      52      -1       0      -1      18
 Te             16.19996587     16.23208693     19.51155672      0.12660076      0.17831153     -0.30961470      52      -1      -1      -1      17
 Te             13.97784502      8.71845878      3.18464124      0.43465842      0.11291376      0.09576416      52      -1       0       0      19
 Te             16.78126172      1.14169978      4.73523624     -1.22805689     -0.03833578      0.41110690      52      -1       0       0      19
 Te             12.51842725     10.95941833     10.51649703      0.12110453     -0.49495703     -0.72900061      52      -1      -1      -1      17
 Te             11.59183799      5.81496938      3.65407432     -0.27962538      0.30435013      0.16521158      52      -1       0       0      18
 Te              6.27339557      9.73553733     14.41214074      0.16521555     -0.02414013     -0.37409254      52       0       0      -1      17
 Te              4.27670420      3.91966836      2.85057697     -0.48461360     -0.33954462      0.15875931      52       0       0       0      18
 Te              0.25321658      3.83949801     16.36215868      0.56522116     -0.62113990     -0.51932084      52       0       0      -1      20
 Te             14.35382541      3.15506024      3.35143789      0.27140738     -0.20128602     -0.39358579      52      -1       0       0      17
 Te             10.27180550     11.39307904      8.47757732      0.51021302      0.60108898      0.36794099      52      -1      -1       0      17
 Te              7.46457343     12.63918549      1.89471892     -0.33108110     -0.27185840      0.09095138      52       0      -1       0      17
 Te              9.66499801      3.91051359     15.97109674      0.15037823     -0.40557402      0.72371996      52       0       0      -1      19
 Te              0.10779339     13.30272076     15.68433562     -0.60133038      0.61167320     -0.30928159      52       0      -1      -1      17
 Te              6.51507080      9.67171856      4.57129715      0.24799485     -0.14436570      0.15241170      52       0       0       0      17
 Te              4.11552213     16.75396147     16.92906620     -0.27983812     -0.04480712      0.45913919      52       0      -1      -1      20
 Te              1.50228641      2.76727919      7.79800797      0.23795498      0.33464958      0.40174884      52       0       0       0      18
 Te              3.55671101      1.77274887      6.12390302      0.20363906     -0.15280208     -0.15257302      52       0       0       0      18
 Te             16.71422026     11.90029538      9.80216074     -0.27417768      0.17985509     -0.18082538      52      -1      -1       0      19
 Te              4.75275200      6.75499973     17.06448264      0.44502956     -0.50844844     -0.33367505      52       0       0      -1      18
 Te              9.28404335      7.07409358      5.13794008      0.28704930      0.02894819      0.04181749      52       0       0       0      18
 Te              1.08169109      7.78361435     16.38189699     -0.35989131     -0.19201324      0.64749640      52       0       0      -1      16
 Te              1.12535350      5.57250039     10.81664633     -0.10652003     -0.24371347     -0.14560648      52       0       0      -1      19
 Te              6.01875551     17.87121327      5.99838219      0.36567237      0.42026790      0.63130443      52       0      -1       0      17
 Te              3.44362056     12.33183937      2.80760249      0.37965106     -0.03778747      0.13878104      52       0      -1       0      18
 Te              0.49737364      6.71091927     13.31393932      0.07552068      0.03484825     -0.57785547      52       0       0      -1      18
 Te              7.20644079      1.52731649     17.52148007      0.05858405      0.26947590     -0.09849557      52       0       0      -1      21
 Te              9.18656892      7.99073431     19.50038579      0.02174095     -0.69073013      0.29527031      52       0       0      -1      16
 Te              7.94316128      2.11258117      1.58911910     -0.16553808      0.54376867      0.15444890      52       0       0       0      20
 Te             19.26321386      9.20530179     10.42849486     -0.22639554      0.11672460     -0.07467184      52      -1       0      -1      20
 Te             18.35281743      4.43328774      6.81405591     -0.04135487      0.31697847      0.21439476      52      -1       0       0      15
 Te              9.89720096     11.32068760     19.17277748     -0.20336961     -0.08454995      0.14071404      52       0      -1      -1      20
 Te              4.72311808      4.13319135      9.95334666     -0.19076303      0.15049802     -0.10957630      52       0       0       0      19
 Te              8.47286764     19.24828578     10.63699067      0.12698271     -0.60354258     -0.39265279      52       0      -1      -1      16
 Te             13.62700054      1.20033262     10.10215129     -0.26080744     -0.11432094     -0.70664041      52      -1       0      -1      18
 Te              2.06469064      0.45515059     15.71052989     -0.47651431     -0.14973860     -0.86150461      52       0       0      -1      19
 Te              8.78502927     15.24792319      1.66437339     -0.39692236     -0.26430001     -0.37212059      52       0      -1       0      18
 Te             15.31306490      1.80999766     12.23251282      0.35832909     -0.39687624      0.31759530      52      -1       0      -1      18
 Te             19.11806056     12.03766977      7.44525846     -0.57593358     -0.76043087      0.78581341      52      -1      -1       0      19
 Te              8.43439646      6.36758911     15.66338020     -0.34124607      0.33256814     -0.09112081      52       0       0      -1      22
 Te             13.25430105     15.42789635     12.79751530      0.06653474      0.18870464     -0.16474827      52      -1      -1      -1      18
 Te             13.61504114     19.16050057     15.43493441      0.32908580      0.32712256      0.05546152      52      -1      -1      -1      17
 Te              1.07629348     16.32421668      9.07300749     -0.30467722     -0.34262236     -0.02541943      52       0      -1       0      19
 Te              2.16692767     13.16206547     12.32040915     -0.54069083     -0.37059673     -0.34001800      52       0      -1      -1      15
 Te              8.32787309      5.30643010     10.38647819     -0.09935204      0.41670766      0.12400433      52       0       0      -1      21
 Te             13.80104692     13.11549787     17.01034782      0.00441233      0.77310719      0.60940945      52      -1      -1      -1      20
 Te              2.40235860      7.44515262     19.87737162     -0.34870487      0.06112788      0.49789809      52       0       0      -1      17
 Te              7.33497793      8.99199046     17.02039689      0.07116601      0.00280486      0.24258874      52       0       0      -1      18
 Te             19.78778721     13.53084905      5.31161603      0.61552449      0.64950448     -0.67703309      52      -1      -1       0      20
 Te              1.28648266     16.02400916      3.59152558     -0.24770182     -0.29132432     -0.02656518      52       0      -1       0      18
 Te              1.38300458     18.64100203      0.98278788      0.45967859     -0.18453940      0.76574006      52       0      -1       0      20
 Te             13.67415023      3.60777132     15.58585574      0.28271935      0.19366809     -0.04402367      52      -1       0      -1      20
 Te             12.94081648     15.62665531      4.47144141     -0.11166189      0.01626132     -0.53568885      52      -1      -1       0      18
 Te              1.78089820      8.04338744      2.94915739     -0.05891260      0.15287494     -0.24693550      52       0       0       0      17
 Te              4.52224242     15.77630661      0.56093311     -0.00587928      0.01818681     -1.01147748      52       0      -1       0      20
 Te             10.02351556      9.22974978      2.50406646     -0.41457138     -0.03498007      0.06475924      52       0       0       0      17