6480
 Atoms. Timestep: 196820
As         25.6541       1.53222       24.7958
As         43.8338       3.33596       25.6505
As         55.9965       5.08067       14.0048
As         16.3878       28.0659       14.5115
As         37.8637       21.6532       14.5043
As         53.4419       22.7041       11.9791
As         19.0053       48.1725       11.3442
As         30.1461       44.7652       11.2805
As         58.1436       38.2255       19.1628
As         12.434       2.94645       45.1316
As         41.2675       2.77769       47.6271
As         50.5409       57.8379       36.4516
As         8.8002       21.9498       47.9397
As         38.198       18.976       50.4382
As         57.0367       28.4424       41.2835
As         15.2057       46.5583       37.3459
As         28.2909       44.8495       40.1017
As         2.02945       36.83       35.9459
As         15.6047       6.84389       57.8076
As         34.0481       4.47051       53.4622
As         55.101       5.55941       2.72583
As         10.0769       31.0572       59.5484
As         42.9319       30.5857       59.1329
As         4.9125       26.1126       51.2278
As         7.20941       40.7219       55.5968
As         39.9908       56.4609       55.2998
As         57.1897       45.5895       57.2771
As         15.8       18.0072       20.8156
As         35.5438       13.822       16.6303
As         43.7252       60.1104       20.7958
As         17.3993       23.0543       23.8013
As         36.8641       32.6255       20.3513
As         54.6719       28.3358       19.8412
As         17.5797       49.0227       23.192
As         37.8226       53.8718       15.2475
As         52.6405       55.4547       27.8021
As         22.5182       4.91694       49.7179
As         36.6741       12.9666       46.3586
As         52.4679       10.2073       48.9396
As         17.6115       32.6183       40.6315
As         38.9927       20.1575       34.0506
As         53.7762       27.4789       43.1358
As         12.6986       60.51       39.7528
As         32.1643       50.639       43.8273
As         51.2733       44.7641       41.575
As         5.1799       6.41734       8.71078
As         27.6582       8.39939       3.23968
As         57.0102       13.7769       58.7125
As         10.1511       31.7642       6.45811
As         23.3925       23.1521       56.9185
As         44.3654       29.7271       3.462
As         15.3333       53.3326       2.01813
As         41.3589       58.427       4.28859
As         56.1025       56.3741       5.79341
As         9.54673       6.34651       60.5556
As         24.7849       11.3723       2.03785
As         52.1618       2.39482       57.5172
As         10.8796       29.4008       53.7146
As         22.9516       24.1309       60.6423
As         43.2745       24.1232       0.67867
As         3.58778       45.302       8.82243
As         35.4891       46.0022       58.7626
As         51.9263       50.0631       1.38531
As         3.63938       57.2883       20.3382
As         13.017       50.0224       15.6026
As         45.3513       60.3794       29.2278
As         2.38916       16.7657       19.1852
As         33.9149       28.5095       19.2024
As         45.5541       22.1148       12.7465
As         7.59105       42.2604       21.2763
As         26.5447       43.6753       19.0441
As         41.9403       33.1854       28.1995
As         2.75492       4.43622       37.4907
As         19.3563       57.8707       39.3977
As         43.6214       59.7666       37.2393
As         7.59897       29.8302       36.3414
As         24.472       25.7885       46.5661
As         57.6563       15.4435       35.0321
As         4.74681       42.9329       34.3465
As         29.6701       40.3036       33.9048
As         48.3417       43.929       31.2491
As         4.56491       22.2203       15.9956
As         27.6079       22.5249       16.2991
As         44.9634       26.7972       16.0923
As         5.6107       42.0462       12.9133
As         31.6429       49.9931       26.7337
As         46.3893       26.7426       20.0735
As         8.04385       53.8124       16.1026
As         14.3519       58.0104       21.1294
As         45.3092       0.279808       26.8623
As         1.54043       27.0857       30.0776
As         15.1887       11.6046       46.4953
As         51.4066       16.2465       31.4179
As         12.6776       49.3837       36.8208
As         25.1392       41.8416       26.9987
As         49.7506       31.3271       40.9018
As         5.03929       7.00937       46.7361
As         30.8273       3.6235       39.9529
As         45.0217       55.8193       34.8935
As         3.86919       30.1118       52.2236
As         21.7102       18.5404       0.760592
As         42.2598       24.6547       59.4218
As         55.644       27.4915       1.46387
As         33.8493       45.8676       56.6053
As         50.8852       48.478       3.13777
As         53.3659       58.684       58.0138
As         23.1076       2.29325       55.9585
As         47.8591       58.855       59.0597
As         9.96855       60.8576       7.54077
As         18.1167       6.51929       12.2892
As         42.7       6.9414       14.3983
As         2.51598       24.0394       5.84067
As         11.7851       35.5259       58.7998
As         32.4347       36.0575       7.97869
As         60.4713       44.2315       6.89901
As         22.5597       44.0365       0.249205
As         44.2385       48.8287       15.9019
As         8.41827       5.39511       30.2981
As         25.0255       7.93273       32.8941
As         46.9296       6.38735       27.9725
As         15.368       21.6348       24.7869
As         27.3279       20.1474       33.782
As         41.0568       26.7585       31.658
As         8.08222       40.5414       19.5758
As         20.9125       51.1273       37.984
As         51.6355       35.0853       24.2085
As         9.03627       5.52756       3.87376
As         25.2648       13.7034       54.4352
As         50.7555       3.7376       50.3905
As         5.77921       34.8117       52.0186
As         20.6853       32.5302       47.983
As         40.3235       18.1392       49.8158
As         -0.139134       45.0087       39.2508
As         23.2509       45.4711       53.2724
As         41.8949       45.6621       37.6634
As         31.7096       56.9447       4.92488
As         44.3548       57.516       59.2946
As         1.42059       9.3527       1.39282
As         11.4971       31.9274       57.6374
As         42.6993       28.1966       58.2073
As         3.08083       24.8253       52.195
As         29.6967       40.2144       0.544506
As         40.7858       41.0881       0.919976
As         55.6875       42.3645       0.121508
As         19.6491       1.82834       27.9061
As         46.9045       4.75924       21.4963
As         55.3771       5.31813       18.6071
As         18.4068       17.9623       31.4713
As         39.9712       22.8825       13.6142
As         56.9778       19.6301       13.095
As         20.704       45.1075       14.871
As         43.248       37.0071       20.0967
As         3.81984       44.0207       16.1376
As         17.5956       56.0938       33.5127
As         36.3714       9.67674       44.1513
As         58.512       7.45462       45.9907
As         23.1473       22.4837       39.8129
As         37.4641       19.8237       37.363
As         52.1526       25.6399       39.8358
As         28.2216       42.7446       43.2697
As         44.9288       39.4801       32.4028
As         -0.111625       31.9524       32.1531
As         1.96842       58.9814       3.21174
As         26.1839       12.0416       0.00610932
As         51.6873       1.25586       55.3956
As         5.61183       21.1304       55.8682
As         14.7081       35.592       2.63784
As         33.6757       27.7505       3.41722
As         56.8926       37.0023       2.45265
As         33.4984       32.4701       6.47295
As         52.3785       41.3796       2.4885
As         52.9904       3.96577       35.7445
As         31.6793       0.551843       24.446
As         47.0583       2.34239       15.3482
As         8.16705       10.9404       23.4186
As         16.1138       18.0194       32.481
As         42.1877       27.9195       24.413
As         6.05262       43.1813       16.8573
As         19.6375       41.964       20.3706
As         42.5351       35.5466       28.5285
As         60.156       2.37196       37.1631
As         18.1488       1.33727       40.5453
As         35.8149       9.75979       41.6374
As         54.7448       24.5297       37.5071
As         27.0433       28.3346       41.7551
As         33.3471       22.6403       43.6564
As         0.553108       30.861       34.291
As         26.147       51.037       45.5909
As         48.3167       37.3645       38.8966
As         13.0067       21.5899       0.855937
As         26.9896       12.2436       14.1255
As         46.9154       27.9951       53.6344
As         11.0771       41.0802       2.42815
As         31.6219       49.0256       60.3112
As         57.3891       39.5258       5.32447
As         1.7791       0.612213       57.8979
As         34.2606       0.52525       3.70323
As         44.0351       59.9405       8.31163
As         18.6727       16.6683       26.0649
As         34.5487       20.3874       26.1232
As         51.8356       20.5654       19.4223
As         15.2387       45.3726       20.1794
As         22.942       39.3673       33.8818
As         60.2191       38.4793       22.1817
As         12.4041       55.6633       19.0131
As         34.3606       55.7589       25.0356
As         58.4315       3.7648       26.5679
As         8.46748       14.9037       41.259
As         24.6718       17.8087       37.9267
As         51.3228       23.6169       38.5173
As         13.2792       46.8147       45.0941
As         32.9474       29.7627       34.7773
As         0.516521       34.4824       49.6999
As         9.76077       3.95293       47.8551
As         45.171       59.7594       52.3973
As         53.2904       12.8177       43.3349
As         14.6604       14.8275       6.54786
As         36.3116       21.4774       18.3915
As         58.3965       22.6254       4.96968
As         16.508       42.1379       12.609
As         33.7044       35.7424       18.9478
As         60.3669       38.1845       10.678
As         7.59456       57.3864       11.6238
As         30.0341       2.89452       14.6539
As         48.4907       58.0806       9.57261
As         13.2351       19.9114       34.5847
As         36.0563       14.1946       26.8991
As         53.1298       15.4458       29.8443
As         14.3559       40.0883       19.1513
As         37.4066       44.8175       25.9325
As         58.028       26.0417       18.6169
As         9.56043       56.1768       33.6962
As         29.9797       55.6113       30.2697
As         41.5501       3.03913       32.6811
As         9.40077       25.397       39.1976
As         43.8169       16.4654       43.8478
As         45.2501       21.9907       54.9691
As         4.18734       42.6418       36.7911
As         34.5939       43.0012       47.5448
As         49.1786       32.81       48.349
As         15.9153       55.051       55.6527
As         35.8157       1.27457       49.6778
As         54.4959       55.5845       43.0394
As         60.8694       14.0406       59.3746
As         25.7586       22.4702       54.0741
As         49.2321       18.6052       57.5636
As         2.9474       27.4418       6.41385
As         30.3008       32.5325       60.4098
As         40.9038       33.1228       5.85175
As         5.48571       43.9761       5.90826
As         19.3897       57.0518       10.6422
As         53.9443       5.63927       6.39808
As         14.2646       15.164       29.3007
As         33.2663       5.01272       23.2639
As         46.5763       17.0801       21.016
As         11.5809       27.0306       26.9358
As         31.6912       35.711       17.57
As         44.3636       32.4953       27.753
As         3.43349       59.7786       35.7967
As         25.349       59.9167       24.058
As         42.0758       51.1405       34.8726
As         3.96352       18.6857       52.3578
As         34.6843       14.5894       50.7339
As         48.8279       14.2347       49.2355
As         8.53157       38.7248       45.4202
As         25.3298       40.9803       44.5142
As         45.9635       35.4519       41.1916
As         15.4657       60.7002       55.0319
As         25.9384       56.4626       48.3136
As         43.3944       44.2296       43.439
As         3.88938       57.3217       17.8814
As         21.7194       56.1777       23.3808
As         51.7235       60.1661       19.0051
As         4.79205       17.6254       19.2876
As         28.7659       19.0517       21.036
As         51.7247       23.6419       16.8523
As         14.2809       32.6303       17.7708
As         22.6954       42.8299       23.3668
As         52.2888       48.5498       17.3616
As         0.717915       1.19551       38.9301
As         28.9153       0.354895       44.5767
As         48.2184       1.4489       32.5166
As         16.4723       15.5705       41.6805
As         24.2233       20.0645       36.912
As         50.2145       16.3307       38.2519
As         6.21031       51.2695       37.0867
As         35.014       25.5929       34.7807
As         49.3145       41.9756       29.9637
As         11.8545       1.1275       56.7682
As         29.327       0.433805       52.6194
As         51.0333       3.81946       44.5978
As         8.62122       21.7194       60.7068
As         23.8822       20.6282       59.6098
As         38.9664       23.9101       60.8957
As         12.6057       41.8057       53.4221
As         39.7347       43.0047       60.6282
As         53.3371       35.6153       3.47193
As         15.1787       12.5615       18.4158
As         26.2504       10.7827       6.10572
As         58.2334       2.62378       6.78548
As         17.5036       26.2003       15.779
As         35.482       33.8033       12.1663
As         53.7612       24.4198       7.89981
As         17.2866       40.3887       5.80565
As         43.0696       46.6196       16.406
As         56.1509       51.974       15.1428
As         17.3796       13.1309       35.3663
As         36.2917       0.333688       34.6308
As         1.78228       8.61393       39.8092
As         10.9116       30.0287       38.7099
As         37.4085       26.216       32.0523
As         43.2797       26.5168       32.9163
As         12.9205       46.9918       37.1086
As         33.8168       47.3986       39.4078
As         57.7432       51.851       34.0115
As         12.9739       9.16714       54.0125
As         41.3652       12.4153       58.6542
As         56.5297       6.84569       1.09788
As         10.0495       34.7409       60.4776
As         23.8621       29.3696       50.4
As         52.1664       23.193       59.7106
As         5.75978       51.0283       54.4781
As         44.5935       52.6416       60.9357
As         55.6364       53.617       41.9887
As         1.72733       2.35224       21.5798
As         20.1308       9.62611       13.6302
As         52.6603       8.23831       22.7569
As         2.48605       25.5155       22.4782
As         27.9595       25.0285       13.0224
As         45.4141       31.2104       14.1657
As         18.7326       48.2678       15.3883
As         23.8838       58.5086       18.8731
As         57.5992       57.3127       7.46729
As         4.70711       9.5103       37.1646
As         25.7211       4.72783       36.6636
As         50.6153       20.1532       27.0534
As         10.1136       29.6374       36.2776
As         14.4788       25.3462       33.9772
As         48.787       21.2075       32.1727
As         3.60255       40.118       36.2566
As         34.2651       42.5562       28.7529
As         35.4924       45.7931       38.3949
As         9.59015       59.2082       49.9323
As         22.2043       3.82263       2.13219
As         43.9353       11.9648       55.7135
As         60.379       28.5595       50.5862
As         20.2847       30.1387       53.899
As         40.894       25.2419       53.9337
As         13.6077       47.8857       1.55878
As         28.2147       52.8487       58.3247
As         44.5631       55.2119       5.99787
As         14.929       0.620605       4.5861
As         40.3514       60.7846       60.3105
As         50.6216       14.7104       10.8818
As         9.73873       26.5405       7.14144
As         34.0401       23.9304       12.9251
As         48.2284       29.4746       3.5617
As         17.3501       49.5969       4.22726
As         39.0948       56.0634       14.8582
As         1.83803       38.9674       5.55878
As         10.7842       0.548392       36.2745
As         41.3288       12.6692       20.915
As         55.5486       10.408       23.884
As         25.4622       26.2955       21.7815
As         36.7041       31.8896       37.2053
As         60.3499       21.0693       27.4367
As         9.86759       46.6952       27.1549
As         24.6318       41.5158       22.5728
As         51.0779       45.1812       24.7294
As         1.33912       13.0161       46.7133
As         37.3908       14.4192       50.9527
As         51.0362       12.5375       42.4204
As         13.7524       32.7389       40.2096
As         27.7642       23.5243       41.0788
As         47.8996       26.8774       44.8093
As         17.9638       49.2213       45.469
As         34.0703       39.2342       40.5862
As         45.2966       45.7591       42.4218
As         16.6251       28.0993       8.02203
As         29.5987       17.374       19.3323
As         53.1539       11.553       11.4405
As         13.6849       30.871       16.1138
As         30.6515       44.5105       13.6318
As         -0.0549053       36.127       16.8193
As         7.70346       3.02371       16.7294
As         22.7241       58.223       22.245
As         54.6014       56.8127       28.5963
As         23.3042       9.91627       44.8395
As         27.0915       14.5652       44.7522
As         59.3546       22.9635       48.2781
As         18.4597       32.1998       38.3227
As         27.5538       41.6244       45.4264
As         52.2921       43.1799       34.8827
As         13.4596       2.61655       47.3611
As         34.2162       55.2315       43.7758
As         48.4651       56.7693       35.356
As         12.0999       28.8871       55.7728
As         29.6944       24.122       56.11
As         60.5965       26.4269       56.3434
As         2.28883       44.5205       47.5688
As         39.1463       39.0809       0.273265
As         46.1476       38.406       56.0297
As         10.2125       3.53932       4.89167
As         35.4317       -0.00769107       1.40764
As         46.1424       51.6841       5.61286
As         13.1894       8.22298       10.0545
As         37.8483       8.86988       7.3422
As         59.3218       9.44875       6.17678
As         19.4797       22.9516       0.529586
As         27.6234       26.5373       57.8578
As         51.5661       25.2382       4.33987
As         17.6983       46.8225       6.55469
As         34.4527       48.538       14.6761
As         60.5401       39.6943       14.4709
As         16.78       0.469682       29.6155
As         37.0944       3.44044       24.501
As         53.2079       7.91252       17.2478
As         14.8794       29.7178       26.3391
As         38.055       26.9951       26.3335
As         2.36067       20.09       21.9925
As         15.1942       41.6627       32.3699
As         29.2082       49.996       27.6597
As         6.86657       49.3797       28.8091
As         18.2222       11.438       56.9271
As         36.6566       9.00443       59.4229
As         58.7884       56.8536       56.8698
As         18.9781       25.7619       43.1806
As         36.7116       26.7043       55.5498
As         55.5476       35.5236       54.2662
As         22.391       51.5231       42.9
As         30.3005       47.0653       43.792
As         3.42615       40.427       51.7959
As         57.1451       2.40792       22.5417
As         23.4052       7.28901       14.2543
As         43.682       13.318       17.7736
As         60.437       33.6192       16.8691
As         18.6122       25.3065       5.99799
As         40.9701       27.9068       17.0149
As         56.8149       35.1462       20.9428
As         24.7983       42.7836       60.3173
As         46.9727       42.8974       20.6136
As         5.33102       6.89703       30.7441
As         22.9717       5.25226       41.4524
As         41.245       3.60521       40.5516
As         5.86061       32.6371       34.3211
As         18.5741       37.0438       40.9608
As         43.1649       26.6726       38.4422
As         9.89502       51.297       44.5289
As         22.3676       34.1507       31.2829
As         49.1964       45.8475       42.2193
As         11.3088       6.74283       3.3609
As         17.9925       6.69673       0.396669
As         45.9936       8.67563       56.6811
As         3.28075       26.3172       58.3266
As         18.9233       31.6232       55.2396
As         43.2029       30.569       52.8239
As         4.25556       44.2872       55.3994
As         24.2406       59.1323       57.8896
As         34.9878       45.1574       0.116984
As         58.4658       10.1168       8.45315
As         14.0636       10.6334       3.01166
As         35.5056       3.69761       10.8565
As         11.3968       38.6017       2.81748
As         26.4318       38.1301       3.44174
As         48.6621       35.3406       11.4422
As         -0.245266       47.9289       14.697
As         31.1989       52.8626       60.6846
As         43.6664       49.6945       9.07093
As         3.88064       13.4275       17.3217
As         32.3781       10.3934       34.5067
As         43.4905       12.1252       19.892
As         2.43386       29.6935       23.1395
As         19.5446       29.1472       17.7863
As         55.1696       32.7859       24.0447
As         58.7839       58.488       28.1766
As         15.5767       50.5593       15.2248
As         45.6241       51.4001       29.6335
As         3.80848       -0.340496       58.7298
As         27.6032       17.0282       44.7375
As         44.4625       12.0222       53.0562
As         60.4168       41.5218       47.9645
As         18.3084       36.3063       50.5055
As         30.5366       36.7309       47.8481
As         0.0968808       58.0681       47.3375
As         21.4774       53.079       41.2769
As         37.7863       51.9096       48.4999
As         5.88745       4.65342       16.177
As         19.9679       9.23313       16.134
As         39.6406       7.31415       19.5576
As         6.10455       26.5089       7.4879
As         29.5128       36.2141       13.6143
As         35.5507       33.2661       9.7553
As         4.67514       39.7495       3.50206
As         23.0952       45.1423       10.7316
As         44.2863       41.5655       15.6321
As         4.68305       10.6247       29.1848
As         30.0947       4.02231       34.4462
As         45.2668       17.2562       27.7185
As         13.1172       32.1655       32.7625
As         24.4314       28.5503       21.2998
As         50.3268       23.8863       28.1464
As         1.88718       46.5803       39.0104
As         24.858       47.6716       30.5952
As         45.5465       50.5516       34.072
As         58.0009       60.1833       58.2145
As         29.9728       12.3723       53.8994
As         45.0284       9.29384       49.6191
As         60.0362       31.1457       59.3898
As         27.877       35.0187       58.0203
As         47.3019       33.0216       56.0322
As         57.4952       57.5559       49.5043
As         38.1352       46.3696       58.9113
As         36.9069       46.9162       48.6405
As         2.37796       18.8517       2.88412
As         20.9091       2.06873       12.2851
As         52.0112       26.6106       0.0950695
As         4.54027       28.2766       57.5286
As         34.5543       38.9799       58.6412
As         56.6448       37.5071       9.32136
As         11.4668       54.4321       59.8148
As         34.8819       53.7478       2.77241
As         57.7289       49.5843       58.5959
As         13.6366       11.6281       20.199
As         31.8973       10.6333       30.8932
As         53.2866       9.03669       11.2972
As         14.9255       29.0521       20.202
As         27.5116       33.5243       22.6145
As         49.6208       25.4332       25.0119
As         10.7137       47.8582       17.2415
As         30.7589       56.1612       25.2253
As         51.7622       58.5715       24.2936
As         15.8513       5.23582       50.0015
As         34.5473       15.3015       44.395
As         45.4033       19.4656       54.9966
As         10.7038       38.0618       46.6468
As         37.9443       34.8625       52.6241
As         47.9679       31.781       42.6991
As         17.7318       51.574       46.06
As         38.2357       54.7883       41.701
As         50.4824       4.49499       42.3181
As         5.70805       58.3095       13.2282
As         25.1851       54.3314       8.04119
As         43.2173       57.2969       10.859
As         15.5438       10.7574       5.00429
As         31.5733       18.1333       13.7355
As         46.2289       28.8514       2.01997
As         3.12226       29.9015       6.66925
As         27.0777       41.9004       14.6046
As         58.1883       40.3368       13.9556
As         11.0472       0.880158       33.8422
As         36.8767       1.4887       29.1323
As         53.7624       60.3351       31.5754
As         20.2502       27.6946       41.949
As         34.4001       10.977       21.5481
As         59.0695       19.694       25.6225
As         5.12038       39.661       28.26
As         30.7118       42.1566       27.3623
As         53.5022       40.9922       31.8038
As         0.715441       59.9171       48.8708
As         39.8174       1.36768       46.1322
As         53.2984       12.6442       59.7531
As         7.22671       22.4356       36.3984
As         26.155       24.8089       54.9466
As         48.2162       22.3236       43.4748
As         7.6818       49.1881       54.1491
As         26.3222       48.123       54.8502
As         57.1237       44.2675       0.680065
As         18.2562       5.97663       21.0954
As         37.2461       6.83035       19.731
As         52.0791       3.37891       10.6783
As         20.9038       15.8383       7.34462
As         42.2177       29.8741       16.1262
As         50.561       15.5169       8.59754
As         23.4421       50.549       5.24149
As         35.8945       49.61       12.9377
As         4.25092       44.5232       21.46
As         13.7794       57.9185       30.0771
As         43.8637       1.02743       38.5775
As         52.6828       12.2147       32.2836
As         8.05293       17.9767       45.4353
As         43.0579       20.5719       33.6225
As         1.30904       28.3482       38.5661
As         11.9122       37.7911       37.6125
As         38.9995       55.2096       31.8316
As         0.357337       35.0617       35.7358
As         14.5653       12.8378       57.5352
As         43.0638       15.3777       59.9888
As         3.4474       4.09035       59.5947
As         18.7855       41.5218       54.3345
As         27.3792       24.1314       56.967
As         59.3009       24.9332       53.232
As         17.23       48.8834       51.2333
As         43.0118       45.9577       52.2225
As         56.6326       47.88       54.2155
As         11.6115       1.10289       9.14444
As         14.8154       6.81133       13.5109
As         39.6354       7.7652       17.1178
As         8.10737       25.6006       8.73266
As         22.0892       35.5139       8.86376
As         37.3522       35.5176       12.0269
As         57.8141       53.3349       16.4428
As         25.1585       44.5725       9.31602
As         48.0698       45.9676       13.5288
As         55.81       6.8608       33.9714
As         25.1285       5.64674       31.7419
As         45.1659       8.07738       28.4052
As         7.9941       27.6565       29.9395
As         25.6009       18.3501       33.8692
As         38.9552       26.4324       30.1645
As         7.9898       55.3895       43.8625
As         22.7816       51.3244       31.7552
As         52.5221       37.0243       25.269
As         6.70025       3.8525       54.9118
As         23.9816       3.52665       59.0991
As         49.5272       6.29548       53.8122
As         7.61341       35.9342       50.8273
As         27.1351       34.4015       55.5007
As         44.0854       27.7115       45.8643
As         59.6151       45.688       37.191
As         24.0435       48.3089       50.3969
As         44.363       46.1406       37.5781
As         13.2396       17.9209       54.6702
As         27.3132       20.1589       9.56276
As         46.8387       24.8382       7.63873
As         6.76758       39.666       53.3433
As         38.8734       34.5247       59.7349
As         48.4856       39.241       59.8667
As         12.8208       53.3323       4.65953
As         47.7877       53.7647       47.5887
As         46.6032       56.086       5.04314
As         20.5233       18.0889       25.0259
As         35.7306       20.1206       21.4866
As         55.2668       7.79699       18.9953
As         4.50418       29.0518       22.0637
As         40.0944       33.6554       40.0698
As         56.4893       19.1801       17.1243
As         20.4119       4.44227       21.9066
As         29.7239       53.8555       25.1543
As         53.1295       59.674       22.5459
As         11.4096       8.72159       44.8726
As         34.4341       6.26238       34.9596