30000
 Atoms. Timestep: 200000
As         25.2232       2.64579       13.0106
As         42.7169       7.82737       24.8124
As         58.9116       1.65583       25.7238
As         73.2348       7.37907       11.3907
As         93.3977       13.5551       14.0527
As         29.8159       27.3221       18.5726
As         48.0571       17.6004       14.7867
As         65.5322       13.3312       15.8097
As         73.5751       24.8405       12.4785
As         94.9738       17.7556       8.05775
As         18.2742       43.5309       16.0991
As         48.2493       44.0349       12.5461
As         67.1574       33.7594       22.0275
As         71.1613       44.556       22.3819
As         4.98577       38.642       31.1959
As         18.0204       61.397       14.7345
As         30.0308       61.3763       20.3388
As         65.0952       70.4292       22.5955
As         88.2583       63.2317       24.5064
As         95.0736       65.9462       11.3019
As         18.4775       83.0223       25.4146
As         43.0001       80.0609       14.1734
As         45.8489       81.3841       21.8416
As         88.7739       85.6122       15.8071
As         99.5085       81.4261       30.2049
As         12.0456       10.5387       38.6207
As         47.5998       4.70285       45.8112
As         63.7187       2.16044       38.8778
As         84.7848       99.9543       40.8323
As         98.4914       100.863       27.4935
As         18.7659       30.1638       34.2536
As         48.4223       29.312       26.5336
As         54.2783       23.6425       31.4557
As         68.067       27.1143       34.3857
As         99.9191       16.8155       37.685
As         22.7981       43.902       33.1475
As         33.6699       42.7546       43.4125
As         58.7401       47.8254       41.8014
As         79.7732       43.6364       43.3605
As         4.50446       36.2971       40.9063
As         24.6445       51.0911       36.0691
As         42.5901       57.7607       33.9284
As         60.1667       62.3257       40.5852
As         72.2865       62.2413       34.1651
As         2.01877       65.047       37.6712
As         20.7479       89.3656       38.8835
As         45.8171       79.7093       49.1005
As         53.3377       71.2319       34.3761
As         74.3609       84.3538       36.7594
As         93.1676       80.778       26.6529
As         26.6322       10.4797       50.5791
As         42.0185       4.49221       70.834
As         52.1494       5.64602       52.1678
As         78.3219       4.0399       63.7767
As         9.72542       9.52169       49.7739
As         22.7062       26.1557       55.0154
As         40.346       22.2863       60.6731
As         59.2533       24.9634       61.5455
As         72.9447       19.6945       56.9939
As         97.7327       17.2317       65.3227
As         10.1045       43.7981       57.7866
As         41.8382       44.4514       72.1889
As         43.8531       48.2929       54.7817
As         77.7003       47.0216       51.7163
As         1.39687       39.1799       70.2747
As         22.5476       61.8542       53.2243
As         29.0015       62.1057       59.2774
As         60.7588       58.8708       49.8248
As         83.9974       72.9032       54.2108
As         3.94727       59.2715       60.9805
As         11.8431       80.0805       63.6178
As         32.1703       78.8004       61.0437
As         54.5908       83.1098       58.15
As         87.4279       86.6719       53.8474
As         95.3085       80.6337       57.5896
As         18.317       10.7856       73.4506
As         36.8637       5.4202       86.2549
As         51.7171       98.1274       72.7723
As         79.2032       97.3817       76.2408
As         4.24445       15.14       79.8107
As         21.2479       31.4836       79.6355
As         39.6248       25.3932       82.3628
As         64.0784       18.6134       83.4885
As         81.5184       30.519       75.4104
As         2.8796       22.2557       78.6404
As         27.3821       56.5698       81.3793
As         42.1883       40.3365       80.8353
As         51.7632       39.875       75.3001
As         76.6684       41.3042       78.3383
As         101.387       39.8983       74.331
As         5.47297       80.2042       82.3865
As         36.5789       66.1192       72.2086
As         75.681       61.4877       75.2538
As         87.5742       71.9012       77.6098
As         2.36204       65.8196       82.3604
As         24.281       93.3174       75.126
As         31.9042       89.4628       81.4388
As         53.5367       91.475       81.2855
As         90.008       86.9426       76.9436
As         98.2145       88.5227       81.717
As         23.3668       89.3448       9.13569
As         45.1104       89.1276       8.1794
As         58.4299       3.23531       4.67662
As         71.4002       99.9825       4.58704
As         93.6338       96.8936       4.50106
As         23.9519       23.7052       100.197
As         38.08       27.4175       90.894
As         61.5321       22.5276       97.7449
As         85.6517       17.0078       3.70134
As         96.4205       13.4827       95.694
As         22.4894       40.3766       0.524665
As         34.4171       38.4837       98.7662
As         57.3532       46.7455       96.678
As         84.5262       49.8592       100.23
As         5.96423       55.7319       12.6485
As         10.9121       67.6566       92.8741
As         39.627       64.7332       90.7711
As         66.0178       59.2172       95.9797
As         78.8034       63.1591       96.7349
As         93.9379       62.9252       4.66517
As         14.356       86.4528       98.186
As         45.2379       80.1942       5.44324
As         44.791       84.3061       97.9376
As         75.2547       84.5589       97.6201
As         92.4897       91.2158       98.8714
As         2.73783       14.4637       24.6412
As         23.1528       11.5719       31.6557
As         56.2852       7.98827       7.58956
As         71.7305       7.49351       33.4457
As         94.4349       9.15133       17.3977
As         10.3438       30.5085       12.3612
As         33.9693       27.148       20.7163
As         56.4201       30.8193       17.2984
As         76.4406       23.6626       10.4754
As         96.1231       30.0275       11.0038
As         23.1108       46.4916       18.0349
As         40.5576       37.9254       19.1804
As         58.8372       50.2613       20.9807
As         70.1256       48.754       17.4079
As         100.577       45.8229       21.2202
As         10.3355       63.283       26.7518
As         33.8827       79.2787       19.7759
As         65.5713       71.1572       20.2717
As         74.3047       75.0097       14.9636
As         0.657257       78.2707       25.0945
As         17.5097       96.466       20.995
As         39.639       88.7503       24.5023
As         57.2315       93.6823       19.7577
As         63.1616       87.8796       26.9565
As         85.3666       95.0121       18.045
As         4.63453       5.58452       40.1193
As         31.9424       8.19387       39.2429
As         53.6317       10.5833       46.9377
As         73.515       16.9382       31.9854
As         77.7157       9.90741       46.9653
As         7.94288       25.552       34.3294
As         37.816       33.3602       33.2436
As         58.2502       19.0054       36.7754
As         70.6553       27.8437       41.5986
As         2.21009       28.559       41.485
As         21.7408       54.4506       36.2934
As         36.6681       56.2846       36.3496
As         48.6794       49.7327       51.4553
As         70.2589       50.5401       41.9501
As         98.0715       49.0815       31.6299
As         14.2205       65.8171       38.9029
As         29.413       66.9866       38.7796
As         48.3428       70.0261       40.0323
As         76.392       67.2703       30.9364
As         99.1574       69.6146       44.6194
As         13.2258       92.9693       39.1078
As         34.3632       93.4609       41.3158
As         53.1971       91.5223       37.8266
As         75.3947       89.6938       31.6044
As         92.596       5.26114       37.2207
As         15.5457       13.6177       58.5876
As         38.5663       11.1196       60.0732
As         55.403       13.7116       67.6497
As         78.0568       10.1163       65.8018
As         89.4809       17.538       59.9867
As         21.9462       22.2554       65.251
As         40.0397       36.6902       58.5585
As         56.3459       32.9127       72.8171
As         66.4564       31.1589       59.6622
As         93.497       26.9994       61.2587
As         9.07629       49.6356       60.9882
As         29.8312       48.1953       67.8581
As         42.9792       50.0835       58.0097
As         74.0041       51.1482       60.2432
As         96.0896       53.8579       54.9779
As         8.62743       75.5467       66.2499
As         30.6752       65.7317       65.8119
As         47.9496       71.7671       59.7056
As         76.0297       73.7771       56.2196
As         96.4987       66.0478       57.6012
As         21.0943       85.6104       65.2765
As         24.2138       81.2288       54.0654
As         49.3144       96.0691       65.9744
As         70.1744       85.9471       60.1178
As         97.495       96.4378       65.1725
As         15.4166       15.8727       76.0706
As         43.1515       13.378       75.9731
As         46.9034       101.243       82.2151
As         76.8071       2.11118       81.3664
As         0.481674       2.36193       80.6316
As         14.4888       31.369       76.2253
As         36.5211       30.0702       77.312
As         64.4276       29.0554       80.832
As         70.3813       26.0024       84.8951
As         88.9087       29.4708       80.1673
As         14.0864       50.0996       87.4463
As         40.8837       49.3807       85.0564
As         47.6431       56.9451       94.5756
As         78.6211       48.4182       82.9759
As         90.3002       46.7522       80.634
As         1.07122       75.7422       91.6558
As         35.1569       63.8958       84.9282
As         43.9686       71.7426       76.9761
As         71.3779       68.9655       77.3691
As         94.9482       73.1886       87.7211
As         14.4955       92.6892       75.01
As         29.2624       92.6267       81.7439
As         44.7912       87.8547       80.1229
As         72.2174       85.7992       75.9035
As         87.4071       99.4957       80.9016
As         11.5096       3.75414       6.09957
As         31.0183       97.3791       6.9944
As         46.2961       16.1375       1.35405
As         71.5587       7.87506       97.2239
As         93.0761       8.43538       96.5578
As         22.4037       32.4814       97.1484
As         31.8446       26.5614       6.82865
As         51.2053       38.4808       0.7492
As         75.5504       39.0356       100.31
As         99.5132       20.6523       98.3535
As         21.8396       48.5324       100.027
As         43.4969       46.5452       100.889
As         53.5662       54.0546       97.8747
As         73.1427       51.8018       99.7979
As         87.0385       47.347       0.825357
As         13.3447       80.0776       87.5556
As         46.139       66.8639       2.24048
As         53.7085       70.4131       2.07626
As         73.807       72.2165       0.408919
As         90.3863       68.7257       100.401
As         18.5521       91.5349       97.4674
As         33.5462       79.6448       0.805073
As         50.32       94.6582       100.056
As         72.7855       89.2472       1.46728
As         97.5693       98.2719       7.30055
As         11.0204       98.5432       4.40549
As         27.8025       96.0235       0.414709
As         42.3474       94.7466       6.33643
As         71.064       90.8246       99.9859
As         90.45       99.9664       2.55827
As         1.39805       9.90405       4.72201
As         21.9142       24.1228       3.29759
As         51.4969       26.1694       99.9581
As         74.5243       17.6703       99.8497
As         87.1148       16.3834       5.63988
As         7.20506       26.7922       4.31509
As         21.8905       33.66       95.0786
As         43.9538       40.6924       0.406655
As         59.6233       48.3809       99.6509
As         91.5773       46.9836       94.4007
As         4.60537       58.6334       10.6785
As         26.9883       57.2133       6.50176
As         47.4876       62.6119       8.83081
As         71.3869       49.2424       12.1898
As         91.135       55.5952       101.188
As         6.35842       83.3125       101.281
As         16.7105       77.5743       101.076
As         52.5101       76.0971       0.182207
As         67.3118       83.4717       0.609927
As         84.7272       74.771       97.1026
As         5.90531       6.80259       21.4816
As         24.5291       3.0492       25.5069
As         48.4252       100.674       18.4736
As         66.9884       101.172       23.8937
As         81.7158       98.8582       23.9829
As         3.83257       17.5936       18.175
As         27.3264       19.9389       16.2133
As         49.108       8.99816       25.5266
As         59.849       21.5078       27.3625
As         80.876       18.189       13.1766
As         3.81692       40.8226       19.826
As         32.0363       30.3236       20.0931
As         46.422       45.8317       19.3771
As         69.6068       36.6129       22.3165
As         78.2079       39.49       24.0147
As         10.7418       58.018       26.2481
As         31.1682       54.6151       17.2761
As         43.5054       52.6689       16.1425
As         69.2482       62.1989       17.1595
As         85.5562       67.8663       21.8952
As         3.50209       82.6867       29.8799
As         33.7754       84.6408       14.3438
As         46.1578       77.3768       21.6058
As         60.2644       79.8383       22.3327
As         89.0342       84.6323       22.3661
As         7.67231       4.02353       32.2186
As         32.4334       4.20324       39.7419
As         48.2216       98.4661       36.9784
As         67.3431       3.07513       38.1807
As         92.8538       5.18942       44.0294
As         100.575       15.7821       46.4155
As         22.5841       20.034       32.2701
As         43.5698       10.9242       42.8497
As         65.8383       24.5112       31.7929
As         80.7843       20.1685       34.8468
As         3.13596       44.2294       42.9731
As         26.4751       36.4011       44.7091
As         39.4192       40.361       44.2579
As         73.0239       39.1269       42.5692
As         90.4065       47.0029       40.9633
As         12.0511       67.946       29.5744
As         25.5997       59.4016       44.1434
As         42.6149       56.7702       37.3641
As         56.877       61.0686       38.9418
As         80.6813       60.8415       34.3711
As         2.40267       83.7208       52.7957
As         26.3892       77.6757       46.0842
As         41.2562       80.0801       41.7986
As         57.6653       86.0631       32.4964
As         86.4287       80.4118       37.3097
As         13.9248       4.64054       65.9704
As         37.3219       2.98085       56.8279
As         48.4183       0.408406       51.9355
As         73.9573       2.26985       59.7368
As         80.3556       10.6114       67.256
As         2.08601       21.7371       66.8172
As         29.6492       23.9009       52.8638
As         59.266       23.8838       73.4884
As         60.3507       32.7362       71.1798
As         86.2395       28.067       62.2868
As         6.71871       33.9457       52.0808
As         26.1474       45.5336       64.8903
As         42.9179       44.638       55.7684
As         66.097       49.0412       59.998
As         86.4222       47.2814       70.5503
As         3.05611       59.9455       63.1347
As         25.2345       65.0035       62.3783
As         46.1307       63.6607       66.2073
As         67.8002       73.7219       62.5923
As         83.6738       67.9373       57.9086
As         6.83525       82.5924       66.2328
As         19.5725       78.2278       64.9382
As         39.0467       83.0315       60.123
As         59.2796       82.7155       57.9058
As         77.4869       86.4802       61.5815
As         1.45543       8.78094       82.0088
As         29.9353       93.8831       72.4011
As         43.9791       99.8909       79.1546
As         58.5447       97.9367       84.4051
As         85.5433       2.60095       86.7314
As         10.6286       24.5387       78.0151
As         30.6553       33.435       81.229
As         37.9135       14.2921       90.4882
As         72.1862       23.5149       77.9093
As         85.6514       20.6706       83.0982
As         12.4475       33.3242       82.7785
As         34.5268       43.9312       82.3591
As         44.7796       37.8393       79.6038
As         68.4229       44.9331       90.2394
As         82.5596       43.2592       83.0009
As         96.3001       75.0065       90.5091
As         19.2563       68.3809       82.9252
As         50.308       60.4087       84.2626
As         71.3999       65.8803       87.333
As         89.9168       72.2183       76.5748
As         98.8211       84.4301       86.3717
As         21.3717       75.8095       82.6681
As         38.1479       73.699       82.8702
As         65.9548       86.229       65.4221
As         87.9776       77.4216       80.9615
As         5.37817       16.9969       19.9292
As         19.6779       21.24       23.1349
As         42.6207       5.49702       23.8943
As         60.7547       13.9043       23.9219
As         90.5816       20.2868       15.6289
As         5.12802       39.0755       25.2459
As         27.4529       33.45       22.1057
As         50.5273       43.9228       17.1817
As         70.0923       33.0582       23.9991
As         82.3361       41.8813       19.3766
As         8.47103       57.1603       27.395
As         23.3108       59.1245       18.2158
As         38.5635       50.5902       20.2434
As         77.8316       62.9481       16.5537
As         96.6295       50.0711       23.405
As         4.49477       78.2779       27.3934
As         20.9923       83.5066       24.9596
As         49.1379       74.8949       20.0872
As         54.0078       91.7356       20.0172
As         82.9794       89.0256       14.7409
As         98.7451       1.94216       21.2466
As         27.203       4.38732       22.6863
As         50.7285       96.7623       17.0277
As         64.8614       3.40549       14.3916
As         79.9502       100.305       12.6501
As         93.6696       15.891       48.3536
As         31.4788       23.5737       45.9036
As         40.6638       6.90078       38.4901
As         70.6507       20.1444       35.6077
As         85.6789       28.1636       30.7198
As         1.19925       35.9734       47.3969
As         29.4145       43.2064       31.6935
As         37.7679       33.8265       45.5728
As         72.7362       36.5893       42.8639
As         84.4535       46.9396       45.5084
As         6.07548       63.0396       32.6577
As         22.9933       62.5007       42.6773
As         51.8863       61.2228       34.6929
As         64.2525       63.1959       45.989
As         80.9033       58.74       35.7184
As         5.27159       84.7622       46.6049
As         28.1771       78.7037       47.7345
As         42.2959       87.671       43.0862
As         66.3326       79.1025       38.243
As         79.4793       80.2428       33.9555
As         7.98713       5.59302       41.5735
As         32.6806       3.22491       44.0879
As         54.643       94.515       41.3016
As         69.7917       94.6985       36.5547
As         92.8889       5.08174       46.6241
As         11.4761       22.5126       56.8325
As         25.2214       22.6458       58.0447
As         52.744       23.4019       66.439
As         66.8942       21.7873       65.6178
As         85.1098       18.58       54.3416
As         6.92957       33.667       49.5183
As         26.3964       47.0005       62.8935
As         40.1437       38.8522       63.9237
As         65.7566       46.7117       61.3309
As         90.1133       37.7114       67.2607
As         1.55074       55.7163       68.3374
As         16.507       67.283       53.9559
As         50.6069       70.1319       69.4123
As         68.7903       74.803       53.2843
As         88.2912       71.4168       62.1702
As         4.92974       80.9357       65.6544
As         21.1337       80.9762       57.1876
As         50.0529       81.7872       51.3108
As         60.581       80.572       58.6176
As         81.8864       85.0662       55.8457
As         13.9612       7.18639       66.302
As         29.8535       97.0894       60.0032
As         44.3664       2.81076       56.5073
As         62.177       97.504       61.7184
As         87.8953       99.3854       65.1652
As         3.71488       20.4242       81.6617
As         21.4649       24.9075       78.5667
As         42.1886       17.6066       92.7654
As         70.4889       25.0407       79.1645
As         86.4863       16.958       81.4255
As         10.8524       35.0085       81.926
As         27.3751       38.2449       84.0975
As         45.9486       39.8538       80.4431
As         63.0457       53.9686       79.5225
As         88.8606       29.4055       69.3919
As         3.34274       66.1898       78.7058
As         19.7001       65.9292       77.9123
As         50.5791       64.5038       84.2903
As         55.9939       55.2806       84.852
As         90.8688       60.7304       83.384
As         98.4568       84.672       83.7952
As         19.7349       82.7612       81.1209
As         45.114       75.4252       78.461
As         68.1394       83.148       69.2137
As         91.3819       78.8139       81.8949
As         6.63308       98.2718       86.3555
As         22.8879       6.4509       86.3503
As         41.5951       1.88022       79.7785
As         60.7812       96.9837       83.716
As         85.0275       0.439817       85.3939
As         7.40232       9.15293       0.202201
As         25.6247       25.0473       4.00463
As         37.6664       21.1338       90.9564
As         55.2126       25.1214       100.689
As         91.8488       15.3976       2.0408
As         3.73806       29.7319       100.546
As         16.9543       42.5262       99.3167
As         41.4783       49.0387       91.0871
As         72.0337       42.1212       0.301586
As         85.3794       43.5927       92.4394
As         1.88392       60.3218       99.8852
As         18.8508       65.3849       94.8859
As         49.8737       55.8794       94.0698
As         69.8279       54.1267       7.36457
As         83.1754       57.2998       99.1261
As         100.604       88.4523       1.97196
As         24.9865       75.7996       7.59623
As         51.6259       77.9774       100.253
As         58.803       81.6986       89.7409
As         88.3885       78.0943       6.24827
As         20.298       99.2705       1.04679
As         27.5351       96.3928       2.89511
As         47.4109       99.6458       7.02708
As         65.9923       3.11818       92.6439
As         85.77       1.55377       99.4045
As         1.54816       99.6151       9.00969
As         28.8187       12.979       8.36396
As         35.9065       101.431       99.8974
As         71.743       2.62095       0.815498
As         88.9206       9.53779       8.20778
As         7.03776       29.987       14.7168
As         26.2647       16.2717       12.0102
As         47.4402       13.0291       10.337
As         63.8805       19.4593       3.43025
As         83.3203       27.0164       6.62863
As         2.76292       41.5117       13.5668
As         14.2081       51.4425       9.79071
As         46.3089       44.709       5.73423
As         73.2974       39.9525       7.05663
As         90.568       46.0015       20.56
As         93.1654       54.1316       15.5917
As         17.4785       73.7176       1.81433
As         45.5048       64.8983       11.7313
As         67.8369       69.544       12.504
As         83.2611       59.9222       14.2349
As         96.3717       90.3393       10.5918
As         28.1363       82.7338       11.697
As         47.146       81.8515       8.23167
As         46.8338       91.1259       11.6871
As         77.9302       86.8207       19.4565
As         99.2117       8.65502       31.4187
As         29.8722       1.26886       37.4717
As         35.4556       3.672       30.0353
As         65.464       9.21724       39.0905
As         83.1431       6.61004       37.8301
As         6.14911       25.8387       29.9243
As         21.2271       25.4454       34.2088
As         48.7969       33.7474       30.7727
As         56.8108       24.8688       35.015
As         81.2337       28.7834       28.1326
As         4.94328       48.5577       28.572
As         26.2796       41.0196       38.3624
As         44.1648       39.8048       41.4349
As         60.3948       48.3809       26.0508
As         76.0554       47.6874       32.1419
As         99.5205       66.8623       34.7746
As         22.9041       60.9502       34.6413
As         37.5161       71.3065       31.4632
As         56.4118       59.9662       34.0212
As         74.321       61.5007       24.6869
As         3.74871       91.566       23.2036
As         30.3059       84.2713       17.9902
As         46.2269       82.2977       27.3697
As         59.2291       83.8539       29.3611
As         78.3365       85.1037       26.4729
As         2.98669       13.3923       58.2999
As         16.7849       11.3503       42.0599
As         44.7758       18.8938       55.2826
As         63.7755       10.669       60.2869
As         76.7606       8.04       45.5172
As         3.60644       22.9639       54.3973
As         29.1472       27.6671       49.778
As         51.3878       21.2798       55.8047
As         66.6104       31.551       52.1338
As         79.5341       32.695       59.0502
As         3.95157       44.5512       58.4249
As         21.3209       47.8094       43.9784
As         45.5899       57.2372       46.1421
As         50.8859       51.8501       53.59
As         83.4133       47.9351       56.3188
As         2.21338       74.6341       51.9556
As         26.4219       73.0127       57.7697
As         40.3154       69.0622       51.0735
As         65.4785       72.1942       49.7692
As         84.376       67.1374       49.1439
As         0.474063       97.7743       43.7547
As         24.3964       96.4909       49.0148
As         39.6894       76.4317       47.3105
As         65.3544       84.36       45.4367
As         79.046       83.764       46.2614
As         5.228       5.39567       68.2362
As         23.5029       5.4912       63.9764
As         35.7683       6.97624       69.7375
As         65.4904       4.5871       73.2079
As         90.8233       10.0181       69.1554
As         6.80401       28.9757       72.112
As         30.8786       38.1842       68.6927
As         33.4119       28.6244       68.4428
As         64.6045       27.0252       73.7339
As         86.4097       27.3855       67.7165
As         9.05216       49.3573       85.8925
As         25.2609       55.3829       82.3167
As         45.4315       50.1943       65.5768
As         57.6912       47.7456       73.1951
As         86.173       50.2182       78.5709
As         98.0642       63.8722       61.1352
As         23.643       73.6928       79.1259
As         50.858       64.7609       79.6312
As         58.9136       76.192       66.5623
As         84.57       68.0345       69.6647
As         0.729064       90.8259       70.7052
As         23.8656       92.7765       72.6757
As         30.8976       83.063       81.8776
As         73.3415       85.5608       70.8596
As         83.272       88.166       74.3889
As         7.76304       7.64247       93.5914
As         27.9857       99.7142       93.5941
As         44.0374       11.1881       96.8967
As         59.2042       2.46187       85.8519
As         72.333       0.559216       89.8932
As         7.72518       23.9314       90.5267
As         25.6882       25.0443       94.4375
As         36.3412       25.0342       83.491
As         55.4014       31.9562       94.0183
As         86.6572       20.7287       85.4431
As         97.0997       40.2102       96.5696
As         24.289       48.5725       91.2314
As         38.6436       51.4482       92.9296
As         67.5942       48.1362       91.863
As         81.8819       53.0489       84.779
As         95.599       76.8383       92.2915
As         23.0545       62.7025       90.9469
As         47.2171       60.2632       91.1689
As         65.8618       73.5387       96.4418
As         94.4979       64.3302       87.0886
As         100.627       95.7883       93.7638
As         25.8646       82.5748       97.2594
As         41.3013       83.7648       92.7708
As         72.8353       84.8854       84.9824
As         82.4463       83.3643       90.718
As         27.2896       92.4939       5.52468
As         32.7791       96.9977       8.67553
As         51.7441       6.78672       5.41713
As         80.5285       98.9828       101.344
As         7.57668       100.201       100.874
As         17.5239       14.1288       98.1389
As         36.193       21.3265       99.4149
As         55.7691       23.1242       0.687142
As         82.2569       17.9424       96.7625
As         0.0668456       22.8877       3.82738
As         25.6159       42.3468       6.30228
As         36.2644       38.5985       2.91737
As         59.0853       38.958       97.9145
As         85.8577       36.1246       95.2783
As         13.6826       52.9748       6.24873
As         18.2418       64.6422       98.2202