240
 Atoms. Timestep: 200000
As         4.605       10.4876       18.6607
As         10.5139       10.9159       2.58898
As         1.82626       4.99077       1.36485
As         4.81628       9.45095       2.07318
As         18.2874       19.0041       11.4227
As         13.9249       14.7626       4.64294
As         12.7546       16.9802       5.06194
As         16.4508       17.0273       19.5048
As         9.46615       18.4676       11.3108
As         8.06377       15.8753       0.943678
As         14.8863       12.7084       16.7927
As         8.1787       6.88857       18.51
As         0.610334       12.8105       17.9419
As         13.8776       0.338346       18.6604
As         17.833       15.3291       18.0896
As         14.0828       7.7809       3.17372
As         6.92204       11.5547       14.3392
As         17.9348       10.0085       7.54347
As         4.74299       12.2156       15.4097
As         12.9201       16.9067       7.56152
As         10.8188       2.06938       17.4103
As         13.208       8.22107       14.9205
As         19.5074       17.464       13.029
As         12.6842       12.611       13.8964
As         18.1213       11.4238       9.64472
As         5.5847       2.71409       1.83416
As         9.34653       13.3109       9.42256
As         7.2633       1.02936       4.85442
As         8.14414       3.87708       6.4912
As         5.46365       0.376173       13.6551
As         3.32046       2.50627       16.0871
As         8.69136       13.5039       18.1364
As         16.918       13.7896       12.4374
As         19.3052       6.34886       9.98838
As         7.67568       19.5503       2.97891
As         13.8778       8.45437       0.717653
As         17.5056       4.60246       10.2115
As         14.3775       19.7717       15.8944
As         11.1369       0.809272       15.0374
As         9.51519       14.3045       4.40576
As         5.82692       5.00885       9.25359
As         1.70318       12.2412       5.46541
As         16.8555       0.0929522       13.0711
As         10.6464       16.3273       11.0215
As         3.09541       0.202175       16.746
As         19.3177       11.1106       19.0189
As         10.1811       11.6711       19.1282
As         17.0926       5.48951       1.37094
As         11.6912       10.8545       4.87308
As         13.2309       5.85772       14.7896
As         3.48994       8.91658       20.2916
As         7.83331       0.862128       13.5258
As         7.9008       4.69873       10.4997
As         10.1929       6.80086       16.9427
As         17.219       12.1412       16.0089
As         14.8196       15.2597       12.1768
As         4.79232       0.769708       5.1028
As         16.1       5.23049       19.3976
As         0.411007       5.12754       11.5401
As         20.2817       10.4818       4.84013
Te         4.07117       6.0701       17.3097
Te         1.92022       14.5427       14.7946
Te         16.8608       2.22259       3.22917
Te         2.94338       12.4817       19.4099
Te         5.21373       6.05273       3.16067
Te         14.8531       14.9854       2.12365
Te         12.2548       6.32252       18.4868
Te         6.74829       4.35667       12.8579
Te         7.41062       0.854439       0.917764
Te         4.66975       6.58584       19.9582
Te         14.1626       15.733       16.116
Te         3.51651       11.9008       13.1839
Te         10.6401       11.1738       13.2077
Te         6.26001       17.5951       6.31908
Te         8.48625       3.99851       3.86924
Te         2.57778       8.8584       3.8036
Te         15.6939       7.59491       9.45976
Te         17.8036       11.7772       2.19516
Te         1.30088       19.3575       13.5534
Te         10.1574       17.0787       4.3634
Te         0.889881       17.2801       1.90258
Te         4.3462       2.9569       19.6899
Te         20.0644       15.881       5.72773
Te         10.3608       3.98776       0.315638
Te         12.5892       9.13403       12.5524
Te         2.02444       17.7719       4.78932
Te         3.17814       19.3395       8.01789
Te         8.21984       17.505       17.6765
Te         3.57782       1.16815       2.81807
Te         8.83859       14.785       11.7361
Te         8.44337       18.5698       13.704
Te         15.6513       10.4505       10.32
Te         19.9113       9.10004       15.5947
Te         3.98067       9.71187       16.2132
Te         16.0832       8.14316       15.0906
Te         6.67763       6.54472       16.3846
Te         5.04448       19.2429       11.3069
Te         17.5533       18.1597       3.2441
Te         17.9973       19.6067       5.8026
Te         11.135       0.559894       7.47486
Te         2.99087       2.2933       13.3866
Te         17.7512       14.448       14.7532
Te         6.746       17.9086       19.9638
Te         13.4262       2.87011       18.1228
Te         20.2317       2.29923       18.3563
Te         14.6969       5.1183       2.72548
Te         7.97649       19.7656       6.93455
Te         13.7773       18.5068       1.66663
Te         13.3154       6.49076       10.7526
Te         5.63762       15.7256       14.6902
Te         6.75231       6.12662       6.90816
Te         0.657495       5.09632       14.9878
Te         16.5484       2.49471       16.2034
Te         18.0942       6.08101       17.8801
Te         7.19258       0.775205       17.3065
Te         2.5797       4.94849       3.89072
Te         5.25438       15.1854       17.4843
Te         1.87532       10.6146       9.94214
Te         0.0616664       9.04325       7.14527
Te         3.66652       0.302866       19.4298
Te         4.27826       9.36901       6.14819
Te         0.916553       13.9049       11.4542
Te         17.4228       8.24161       3.96803
Te         3.05844       15.7251       0.728406
Te         0.404173       4.69935       7.64118
Te         11.924       19.7872       11.4178
Te         10.6612       13.7287       2.09326
Te         16.1481       4.67678       5.35456
Te         10.3035       10.6692       16.6451
Te         8.93122       7.2058       10.6164
Te         3.22761       17.3646       12.0247
Te         0.499016       8.8778       18.1849
Te         5.19463       13.5882       11.7235
Te         12.1351       13.3851       19.1748
Te         0.461805       13.5028       7.51552
Te         17.8478       18.1246       14.9923
Te         11.2274       8.1697       0.217188
Te         16.7851       2.68324       19.2865
Te         0.618382       16.4565       16.1208
Te         10.3197       16.7241       8.38366
Te         7.90584       9.76727       7.91895
Te         14.2452       7.69099       7.07523
Te         14.6316       10.7115       7.40433
Te         18.8412       17.5518       7.73535
Te         20.2822       12.5878       13.7757
Te         7.17988       13.7446       20.237
Te         2.85499       6.54632       7.47759
Te         10.8797       1.09417       1.01028
Te         17.2372       5.09983       15.3494
Te         17.1637       19.2342       18.2433
Te         11.5091       8.15273       8.02345
Te         1.85268       3.47718       9.90348
Te         19.914       14.6852       19.5199
Te         3.9782       4.95743       12.804
Te         3.27068       16.8997       18.3804
Te         16.3095       15.3568       5.89935
Te         11.8457       18.698       15.7063
Te         17.2193       8.11452       1.13281
Te         4.38327       11.9814       2.4419
Te         18.4079       12.184       6.01974
Te         13.5498       3.7728       8.74747
Te         15.5129       1.37695       11.0533
Te         0.134899       11.1286       1.1611
Te         19.3741       1.7621       15.8542
Te         1.0988       14.0474       3.68279
Te         10.3166       4.98892       7.22545
Te         4.56011       12.0819       9.28336
Te         16.0502       13.4471       19.0551
Te         1.43772       7.59979       14.1475
Te         0.581718       5.06608       18.186
Te         13.6602       1.21267       0.888455
Te         5.36542       19.3017       16.065
Te         12.0309       10.6429       9.02512
Te         19.4959       9.86979       11.1797
Te         19.7819       6.75274       4.0511
Te         8.30122       0.997288       10.7436
Te         14.3829       10.8305       4.19364
Te         20.0469       18.6976       18.4858
Te         0.216159       7.17205       1.26964
Te         2.80545       14.9459       8.33445
Te         15.6844       16.4064       9.95776
Te         18.1401       3.31587       7.90304
Te         11.1182       17.6776       1.62156
Te         7.62801       10.1616       16.3946
Te         18.1222       7.68481       11.9738
Te         5.319       11.8753       5.31566
Te         9.84402       4.44269       15.7831
Te         7.4716       14.1459       7.70164
Te         11.1267       19.9463       18.5756
Te         4.2393       3.08312       6.42313
Te         7.98087       4.16649       19.3198
Te         7.87026       7.05069       1.99266
Te         14.9261       5.29197       12.7664
Te         3.7618       15.6169       5.5742
Te         0.220532       0.129947       11.0089
Te         1.24231       0.846188       7.2904
Te         15.6431       14.0848       8.30953
Te         13.8517       16.8248       18.7303
Te         14.1892       19.3703       4.37147
Te         8.06592       14.0731       14.9939
Te         11.5064       7.2622       3.78832
Te         16.1793       8.99195       18.067
Te         20.2704       3.20185       1.44834
Te         5.42289       18.2363       2.68821
Te         11.2166       4.39092       4.43822
Te         8.04039       11.099       10.2755
Te         10.2501       15.6894       18.8105
Te         0.698114       19.7429       0.734515
Te         13.1038       13.4479       11.3544
Te         6.40149       15.6592       3.01375
Te         8.37451       8.32168       4.60156
Te         13.8845       10.3552       17.7661
Te         7.41021       9.61278       0.637146
Te         11.7794       14.7414       15.3159
Te         5.30709       8.26118       10.1652
Te         5.37934       8.40403       12.9527
Te         2.6032       7.66583       10.0408
Te         17.6333       14.5397       2.36583
Te         15.1476       18.5592       13.6407
Te         17.4351       0.0940626       1.48469
Te         13.6708       11.0338       1.35199
Te         5.34006       2.34778       8.85619
Te         18.7673       3.44865       12.2833
Te         11.6523       0.663711       4.67016
Te         8.101       8.08194       13.1855
Te         0.642148       0.209529       4.57205
Te         6.15037       16.4503       8.96787
Te         11.0381       2.03784       11.3217
Te         19.4309       2.99482       4.33393
Te         8.09179       10.8294       3.62789
Te         1.53554       17.5181       9.52351
Te         17.0357       0.79274       8.7427
Te         18.5944       14.9967       10.7712
Te         14.303       2.73828       6.24998
Te         6.02395       2.9848       16.1386
Te         11.1493       5.31821       13.3338
Te         16.3268       10.6926       13.903
Te         13.5458       19.3968       8.04537
Te         11.1815       13.0809       6.10649
Te         13.5465       1.73074       14.6307
