1920
 Atoms. Timestep: 200000
As         5.68926       0.00995162       21.0648
As         30.9091       1.48555       19.5358
As         14.9921       25.9518       13.5182
As         29.642       29.6008       25.2823
As         16.6209       1.43467       36.4605
As         38.6114       4.12148       39.9151
As         20.8273       25.0358       40.4119
As         35.2941       13.5294       20.1304
As         11.112       8.2589       22.7058
As         27.0048       7.03491       15.2146
As         5.39874       20.3928       19.9969
As         31.831       38.8104       20.7279
As         6.32398       4.69625       4.73482
As         27.8653       10.286       2.48073
As         15.6852       28.0075       37.245
As         35.6451       21.8957       4.10942
As         40.1837       35.1541       4.93771
As         27.0837       39.9341       38.8827
As         2.22123       14.7875       33.7192
As         24.9283       22.1567       3.56992
As         39.3721       2.15678       14.6366
As         25.0322       15.5383       20.7014
As         39.5003       25.6353       15.3242
As         25.4483       24.2254       13.3735
As         39.2815       23.9498       13.5094
As         30.6304       31.3146       17.2942
As         1.99204       3.90125       25.1322
As         29.7909       2.20329       23.1102
As         1.03814       16.9381       33.0587
As         23.5743       21.6159       5.43675
As         35.9149       37.2207       0.686467
As         26.155       38.1003       35.4381
As         2.00925       14.6259       16.8251
As         23.4628       1.49708       2.01644
As         4.28804       29.2212       8.9396
As         23.4701       36.3417       3.83858
As         40.0847       10.6221       21.9723
As         25.8209       1.97786       32.7177
As         11.6255       23.3104       27.5683
As         31.7944       30.6682       33.6077
As         16.1261       3.53851       39.4508
As         34.4527       38.8919       35.9677
As         21.2433       22.5345       40.4662
As         2.32157       22.126       37.6849
As         12.7002       7.0922       29.0541
As         2.77938       8.41898       24.0215
As         24.6311       30.0045       29.6373
As         24.7166       22.222       19.3279
As         27.5239       40.4929       1.7841
As         13.8767       0.735205       5.96549
As         2.51214       22.4819       35.1798
As         21.9254       27.2381       5.07769
As         2.79224       10.266       25.8846
As         14.3207       20.0918       16.5786
As         35.427       22.5967       19.9787
As         26.2007       28.1627       30.2183
As         14.1298       26.6639       8.74477
As         34.1227       21.9272       2.0864
As         24.391       29.0745       10.4461
As         3.42587       34.8388       0.127924
As         17.4632       23.9969       29.8499
As         1.12504       20.8601       24.031
As         19.8362       1.10443       18.7565
As         39.5407       1.59776       26.7954
As         16.1538       16.7385       2.23194
As         32.7374       26.3339       6.80814
As         17.174       31.4327       15.8145
As         35.3278       33.9047       34.9615
As         18.8926       11.0668       36.2004
As         32.9363       15.3488       33.465
As         17.4298       35.5367       25.7254
As         37.495       6.5859       34.1481
As         16.4816       15.657       38.9291
As         27.5339       22.7296       10.5303
As         13.394       35.6433       19.5575
As         29.9476       37.5235       40.5579
As         8.09539       11.4479       23.6932
As         21.8302       10.6761       22.1743
As         13.5668       30.9265       20.6743
As         31.8828       34.1682       33.8512
As         39.6427       8.1273       22.578
As         26.2195       40.0484       16.1422
As         2.88094       22.1501       17.3119
As         22.1338       13.9108       19.4987
As         39.4336       36.9124       38.3456
As         34.2092       38.4451       33.5836
As         5.47095       16.4059       34.8599
As         27.2332       13.9015       39.3566
As         17.5836       6.99831       15.9842
As         25.8328       18.6701       18.6861
As         19.8236       26.9803       22.6684
As         31.3502       29.9953       19.259
As         9.51583       4.92003       1.89544
As         0.920573       1.06735       39.8488
As         16.2299       30.1292       35.9652
As         36.0364       19.8274       36.981
As         0.640052       3.58808       11.928
As         20.7035       5.52363       24.7013
As         4.09477       25.9751       21.4822
As         30.1793       24.6539       2.57019
As         10.9949       37.2711       37.2042
As         27.0066       3.64004       31.2177
As         11.1222       15.5381       39.9025
As         23.6918       22.7715       36.3207
As         12.9045       5.15623       8.14299
As         29.5103       2.548       7.49298
As         13.7397       21.936       2.72455
As         34.3493       31.3467       10.3608
As         8.09503       8.63088       39.38
As         25.3385       5.18949       22.5395
As         17.4914       20.7672       34.0147
As         34.1908       31.2419       26.0548
As         6.33649       18.2124       36.1641
As         39.956       11.8074       8.79638
As         9.84857       2.65008       6.37687
As         31.7852       3.70555       37.7241
As         9.17868       11.0646       15.958
As         22.3236       15.7126       21.0825
As         4.76126       7.72108       10.6601
As         37.891       3.48826       20.4767
As         11.0418       3.33578       8.46237
As         33.4568       2.30178       8.01167
As         21.3128       23.948       36.141
As         38.784       30.2236       18.3679
As         5.67984       8.14644       40.3914
As         26.1543       6.92628       20.9521
As         25.9108       28.7956       26.1332
As         37.0993       33.5118       25.9333
As         39.2637       5.45159       19.564
As         25.52       3.9497       29.0916
As         5.31815       25.0998       16.1524
As         28.0324       31.446       24.7361
As         3.75977       39.5236       38.3756
As         27.2822       2.55047       27.8783
As         10.3868       19.5565       36.4506
As         26.6768       21.9604       37.0244
As         4.06412       11.6282       14.8388
As         13.398       14.1025       3.24841
As         2.16538       24.345       8.52736
As         23.142       31.2546       38.4461
As         0.953203       14.0998       22.3391
As         23.0698       8.94834       23.4268
As         2.38965       29.1342       16.3333
As         28.1071       31.1319       28.4767
As         12.2047       9.62567       9.39684
As         24.2397       1.81452       7.20065
As         4.24472       36.862       6.73778
As         28.6589       35.642       1.07208
As         0.137862       9.42616       29.8444
As         34.3652       7.54888       36.607
As         5.95453       33.2756       20.522
As         23.6192       23.5608       31.6856
As         11.1027       23.9308       11.2764
As         29.4498       16.0834       3.80321
As         17.6492       32.3375       9.23666
As         29.1244       38.6861       5.83702
As         4.5167       10.0245       11.4077
As         29.2069       18.9969       29.7075
As         10.4383       38.3735       25.5726
As         29.5811       34.6333       29.7065
As         8.75096       36.6659       13.445
As         33.1498       34.2025       13.1275
As         6.73514       15.4792       10.705
As         31.0969       22.4431       8.89842
As         5.80477       32.7438       39.0574
As         33.0579       34.7062       35.9412
As         10.3672       24.7207       37.7466
As         32.0831       14.8251       35.7458
As         14.5142       7.35394       21.147
As         32.7246       40.3081       18.999
As         19.3706       19.364       11.6961
As         38.2074       30.7248       15.9778
As         15.4881       1.29314       28.7185
As         10.6425       12.6433       30.174
As         21.0861       15.9603       30.9479
As         0.867367       33.2557       34.7288
As         5.33691       8.57804       30.9086
As         21.9026       2.39961       3.64933
As         4.90155       27.0298       8.06268
As         18.9519       32.464       4.49649
As         3.22269       1.33616       38.6573
As         22.7463       37.1653       30.9498
As         11.7969       21.1202       26.353
As         15.5055       22.0737       35.1539
As         7.65597       13.3476       4.45349
As         34.0273       10.8803       6.2574
As         12.8014       28.3203       5.07699
As         34.618       22.7866       38.56
As         9.66356       12.7687       14.0295
As         0.956847       18.5791       25.1113
As         15.0074       29.3431       19.3088
As         0.919121       32.7877       20.6492
As         0.739278       10.8802       10.6222
As         33.5746       11.219       15.1974
As         5.23102       32.0143       13.187
As         18.5448       33.6959       32.4013
As         4.44856       14.4374       23.1595
As         26.7417       9.77712       6.32054
As         9.36895       23.743       26.652
As         28.0066       26.3727       34.1025
As         38.2226       7.93798       10.9435
As         23.067       4.76489       21.3253
As         5.32957       17.2239       14.3823
As         33.3894       24.7108       5.19043
As         38.6748       34.7186       39.4213
As         32.1337       3.69194       35.2
As         40.3553       12.8853       39.2885
As         24.1339       20.6275       1.68056
As         0.663563       12.7004       12.234
As         31.1117       15.5931       2.09283
As         14.9408       35.0512       17.8081
As         19.7716       31.2727       2.40243
As         9.85997       12.9854       27.8409
As         28.4549       37.8281       34.4254
As         7.20134       26.1021       34.1715
As         31.3229       33.0167       24.1934
As         27.3308       22.5101       13.1574
As         32.42       24.8162       19.2769
As         17.4152       39.8367       37.5239
As         10.1349       35.155       15.1119
As         22.9323       11.4664       39.609
As         0.503126       32.7552       32.2605
As         13.354       1.55057       27.3847
As         39.1012       2.25103       30.6246
As         17.5083       15.2891       8.52486
As         31.066       8.92242       17.3752
As         21.2546       35.4554       3.54626
As         37.462       35.8579       16.1918
As         22.0538       2.02089       32.8707
As         1.47586       9.36341       31.8765
As         21.7982       34.7308       24.2708
As         0.20633       25.7894       39.615
As         1.83145       12.266       15.8268
As         25.5881       9.82084       1.83075
As         5.25336       33.7672       5.5722
As         34.4517       30.6631       12.6596
As         5.25777       10.5732       25.7857
As         22.669       11.0807       37.1767
As         6.64438       40.381       29.3171
As         29.7415       27.355       35.7545
As         4.61515       34.2063       12.1255
As         27.8154       7.19605       8.89284
As         4.81387       17.4621       16.9546
As         31.3997       23.4619       11.1392
As         39.7297       1.18592       35.4458
As         35.2063       29.791       38.8691
As         14.9765       23.6357       29.4119
As         24.7092       15.5818       30.2604
As         16.802       35.7369       10.0641
As         1.17149       33.4426       11.9047
As         12.8401       23.0433       9.6875
As         32.7382       31.7478       16.0382
As         7.47378       38.9534       21.7207
As         38.8616       36.761       24.5756
As         20.4909       22.6393       29.3187
As         31.0037       21.974       24.8093
As         23.5669       12.1357       12.1687
As         35.5309       16.7586       15.2649
As         11.2361       34.6443       18.825
As         40.2234       30.2708       4.97752
As         18.0764       15.5983       35.3888
As         26.7975       9.9108       28.0645
As         10.9463       25.0949       30.8359
As         1.13085       36.8355       27.0935
As         18.8714       38.9053       35.6458
As         7.63787       34.1458       1.85673
As         25.7685       30.3537       8.80545
As         39.4296       19.965       9.24326
As         17.1433       4.82123       22.9571
As         35.6463       11.1814       30.081
As         23.3082       17.0109       31.6939
As         37.6236       28.6222       23.1681
As         11.5962       20.9024       9.28458
As         33.0697       15.8775       9.32449
As         40.038       4.52411       13.9858
As         29.1136       34.6943       12.2442
As         11.3259       22.5887       29.9524
As         30.0987       16.7656       30.7779
As         40.5807       2.39951       24.7303
As         20.4318       32.1463       33.0438
As         15.4507       9.68918       3.96034
As         0.318439       19.5859       7.2969
As         18.4829       34.0885       38.7974
As         1.70979       39.1336       10.4988
As         16.034       13.4918       20.9434
As         4.16003       17.0317       23.0543
As         20.16       1.4519       21.2873
As         38.3104       8.79742       26.4447
As         12.7096       8.61995       17.9075
As         22.5647       3.09454       8.66695
As         16.0767       27.612       14.9876
As         37.0511       28.5544       18.8996
As         23.1991       38.9608       29.2191
As         37.0858       11.4723       32.1239
As         14.0769       23.9723       1.05592
As         0.466249       31.0369       35.6431
As         12.2658       8.45965       20.4876
As         40.5231       25.2487       11.7248
As         26.5534       31.1505       26.667
As         1.24847       31.1981       22.4957
As         22.5082       5.02939       0.602959
As         39.4071       16.5105       34.0544
As         19.2471       30.5079       31.4158
As         31.7804       20.8637       32.407
As         9.32221       39.3569       19.9894
As         29.6459       39.2717       8.29272
As         22.7438       14.342       11.4341
As         32.7839       25.6219       15.5437
As         13.0674       0.132464       1.03619
As         34.7514       3.97985       35.4944
As         16.0739       21.2646       40.0522
As         28.53       18.5311       37.1915
As         7.26651       12.0185       8.21929
As         35.181       15.4174       10.8374
As         15.6405       33.6721       8.9737
As         36.3785       29.9444       0.509111
As         14.9131       13.7351       30.0863
As         30.8541       14.0026       28.1982
As         6.46437       37.1832       20.3261
As         31.3926       36.2902       29.5802
As         24.4969       34.4719       5.22976
As         36.8513       11.5632       16.8214
As         23.9604       38.8275       16.9661
As         30.0919       36.7281       10.8882
As         20.7603       12.6585       36.5269
As         0.487621       11.0095       35.5555
As         12.2461       40.5006       28.8469
As         29.8762       36.5221       36.1769
As         34.7983       38.3579       2.75166
As         18.8565       3.07411       1.49989
As         6.34058       27.0619       21.7872
As         16.4958       28.9919       33.8946
As         38.6358       5.79698       16.8856
As         29.8988       6.87193       26.083
As         7.75482       28.5989       18.7344
As         29.9705       25.0763       26.7706
As         13.9844       9.06711       5.99531
As         33.7099       12.4608       4.36345
As         25.4836       38.2595       39.5825
As         5.35426       34.9266       7.92363
As         14.1622       8.29298       30.7603
As         34.2583       9.23483       26.9089
As         14.0578       37.192       26.1429
As         1.60606       36.6552       24.5212
As         13.626       16.2998       1.71751
As         36.9252       19.8218       3.30975
As         14.905       31.952       14.9373
As         36.7354       37.8542       36.1302
As         13.5812       14.6104       31.9279
As         1.45796       8.61176       35.4689
As         12.4355       37.5214       24.2793
As         5.8364       36.9926       27.1988
As         25.9254       18.6264       4.99367
As         38.4914       18.4501       14.4656
As         22.2279       1.71798       18.3787
As         40.2103       38.9081       9.17084
As         18.0049       5.40292       29.8317
As         37.7356       12.0753       22.5061
As         17.0092       32.0872       38.4561
As         37.2149       39.3438       0.629247
As         14.7734       7.15677       0.835692
As         30.1015       16.0364       40.3713
As         12.0419       27.9824       8.60248
As         32.607       24.08       39.5574
As         18.5909       14.0565       21.7977
As         28.2345       5.94999       24.5475
As         26.9759       30.2058       22.8633
As         36.0776       32.0008       27.7018
As         6.27638       2.19307       5.37136
As         35.9188       1.81921       7.93404
As         12.4843       26.0483       3.9653
As         27.9222       34.0813       6.80883
As         9.53979       12.679       21.7027
As         34.912       20.6215       26.2197
As         7.07264       20.2803       18.1121
As         22.0305       28.6441       19.5999
As         7.00541       17.6316       7.72775
As         27.2585       7.29059       12.7086
As         11.8315       30.8571       18.7014
As         0.659033       25.1783       25.9523
As         9.56138       7.37804       1.82203
As         31.8726       8.60119       34.2413
As         7.46321       38.7648       31.0629
As         38.0227       30.8545       30.9116
As         20.4423       13.2168       8.49938
As         38.1658       17.7072       9.41347
As         18.3324       34.1245       0.647612
As         0.269463       25.7722       7.91775
As         18.0747       13.8367       32.1019
As         36.4463       20.6515       24.2063
As         20.0929       32.8255       24.3679
As         40.5009       27.1428       27.4407
As         17.6714       9.03255       14.6279
As         30.9664       18.1791       26.4199
As         21.8252       25.4527       22.1165
As         6.72552       30.385       17.2126
As         14.8945       33.9616       33.3335
As         1.3134       34.6389       6.63228
As         24.3754       35.833       29.5272
As         35.2575       19.1339       39.1409
As         38.0695       40.4375       30.2076
As         31.0761       36.1931       27.2055
As         31.5709       26.4301       17.5146
As         19.2634       21.1239       9.93389
As         40.017       39.9164       33.7286
As         23.4073       32.7006       36.4467
As         8.84926       14.916       38.9326
As         19.55       29.2882       7.47083
As         6.08127       8.57355       18.53
As         26.6659       0.152972       18.6458
As         16.0635       22.8951       18.5957
As         25.7131       20.9527       17.4902
As         13.4819       39.8986       39.3439
As         28.325       11.1582       0.217969
As         39.6237       23.8423       0.136421
As         27.8194       18.3558       34.7823
As         14.0181       10.9235       10.548
As         27.0901       4.70287       9.28337
As         4.5515       22.6638       15.4513
As         29.482       26.8854       4.31959
As         8.93227       36.5745       38.3999
As         26.742       31.8413       32.5422
As         10.494       25.3847       35.3253
As         31.5483       23.1067       26.8273
As         14.1803       9.07096       12.2143
As         27.663       4.58767       15.5634
As         8.78035       28.2186       14.6219
As         35.1814       29.0083       22.7265
As         16.6597       1.97911       0.812203
As         31.3657       10.9462       34.9213
As         12.4254       23.9341       34.8449
As         31.9564       23.2844       32.1334
As         16.7723       6.78743       40.0345
As         31.2707       12.4643       4.50657
As         1.36177       22.9547       0.613702
As         36.2633       24.5655       37.8094
As         7.12671       9.29457       29.0964
As         28.9577       9.9028       20.4395
As         18.2537       24.2453       18.784
As         29.3178       33.3644       25.5823
As         21.0045       17.709       10.7814
As         35.9024       11.7277       14.4691
As         3.98106       34.2037       19.2071
As         39.5322       30.2794       2.5389
As         12.2314       13.2059       39.5882
As         27.4119       9.8541       30.4894
As         5.19244       27.5896       34.4835
As         38.5958       29.1661       32.7949
As         39.4809       7.28862       8.88487
As         18.2665       13.4473       6.98508
As         10.1036       34.959       1.41648
As         28.4683       33.5515       38.3828
As         31.2283       10.4634       19.4825
As         22.1946       4.50627       32.907
As         3.07362       25.4354       26.1759
As         25.6992       39.694       22.5306
As         8.56779       16.4141       9.18707
As         18.5109       8.23381       12.3398
As         7.25648       0.501955       24.6255
As         29.5894       40.1437       23.529
As         6.78544       11.5765       5.80022
As         28.336       14.7053       30.9032
As         6.30356       1.95515       30.4206
As         32.0976       28.5117       32.2528
As         37.4387       16.3003       13.7296
As         7.37085       12.5622       16.8606
As         35.7345       37.0092       14.7632
As         19.8729       29.8071       19.4015
As         2.12366       12.0717       39.2026
As         16.0827       16.4532       36.6294
As         1.69377       35.5622       34.088
As         24.5365       34.5514       37.5972
As         15.275       3.08596       6.27553
As         2.71678       34.1347       2.55957
As         23.4388       28.0118       3.19571
As         4.98349       21.9426       34.6631
As         18.6658       5.15232       27.456
As         33.5767       10.5463       31.4076
As         22.2511       25.4484       32.7244
As         1.88042       29.199       21.2599
Te         27.237       32.3254       2.65656
Te         20.8292       33.5105       36.4087
Te         3.7714       16.4911       7.62303
Te         34.2212       29.1845       15.8539
Te         13.1682       5.17641       21.9998
Te         33.4215       8.02497       20.8814
Te         17.2622       17.8802       11.1711
Te         27.4433       27.7136       27.9983
Te         10.4866       0.953386       1.05572
Te         35.589       35.1982       6.71928
Te         22.2037       32.0698       8.83228
Te         36.6986       23.2545       35.5756
Te         12.6805       4.10942       12.4831
Te         23.4834       7.46741       27.7526
Te         21.8792       21.8179       12.9041
Te         38.396       23.4512       17.7703
Te         24.3335       40.4187       8.69077
Te         30.4232       32.5749       27.8799
Te         18.2034       24.4693       4.65866
Te         30.7409       24.1729       14.533
Te         18.9156       2.9282       30.4383
Te         2.72092       38.5256       0.132524
Te         21.3989       12.797       33.8819
Te         35.0261       18.1572       35.2127
Te         33.893       22.5612       22.1233
Te         17.9751       20.3326       18.8008
Te         39.5883       1.28084       11.9985
Te         22.3155       37.8055       10.9837
Te         0.591635       3.28549       6.20962
Te         22.9937       17.4498       40.0353
Te         3.93797       31.0223       32.8512
Te         34.4132       32.7658       6.53088
Te         24.9164       16.0692       11.9584
Te         36.8136       27.6769       29.4057
Te         18.2713       2.96679       37.9393
Te         37.01       39.306       14.1667
Te         21.9728       20.4035       26.2463
Te         14.7609       16.3905       19.6877
Te         3.053       30.5658       36.2029
Te         1.05806       40.1553       18.9195
Te         9.66468       15.847       2.2821
Te         27.0002       25.8579       4.59511
Te         36.2353       32.2293       16.231
Te         34.8609       37.5244       26.8072
Te         34.8456       36.4138       23.3504
Te         29.8749       6.87903       12.2206
Te         3.57575       39.9488       13.5781
Te         24.0       34.5105       15.155
Te         9.45598       17.9496       11.0653
Te         20.0141       22.9057       6.30211
Te         5.13862       0.737214       10.3839
Te         29.4108       2.71377       37.8024
Te         7.25526       20.7228       21.9196
Te         22.0729       13.4787       30.2699
Te         7.70024       39.594       36.4722
Te         31.7919       26.6857       34.2966
Te         8.78252       18.8474       6.34728
Te         29.9812       18.507       0.398244
Te         10.9878       2.4598       39.3819
Te         21.7887       9.99917       2.53116
Te         18.976       21.0035       27.8558
Te         34.7621       18.0508       27.1063
Te         3.87334       0.0964432       7.85887
Te         20.8473       36.0716       22.1287
Te         7.3948       9.85727       37.0981
Te         22.1165       24.8355       15.7442
Te         39.5787       30.7183       39.4445
Te         35.7942       36.2937       33.6113
Te         0.427818       16.6402       21.8297
Te         34.734       19.9049       22.1464
Te         3.99424       2.14172       27.9042
Te         37.2284       0.417423       23.2236
Te         17.4151       21.1672       13.4763
Te         29.4014       5.5324       3.70365
Te         6.09526       23.4288       11.5212
Te         29.5661       3.22535       2.10364
Te         12.8088       12.4883       33.2879
Te         23.4351       9.53602       29.6063
Te         5.64041       20.1757       24.2093
Te         33.287       23.3324       29.911
Te         0.394005       10.2505       6.88973
Te         20.9205       5.89933       39.2945
Te         8.8773       39.6919       10.6564
Te         20.6163       39.0847       28.3778
Te         36.498       19.0555       16.099
Te         28.3126       18.6336       25.9107
Te         2.04787       3.67928       28.9446
Te         33.8032       4.03389       31.2284
Te         3.65815       22.2336       11.4895
Te         25.8637       15.9877       5.06596
Te         2.57567       32.0021       18.5485
Te         22.9184       39.3133       39.6054
Te         11.1001       5.33537       32.1514
Te         24.8808       12.5635       8.57386
Te         8.63012       30.2346       20.5969
Te         23.0434       19.1646       10.2234
Te         14.0186       20.0903       6.45273
Te         5.1035       7.51897       20.8811
Te         18.236       25.1916       23.8431
Te         38.528       31.0391       22.5034
Te         25.5107       38.6493       32.7951
Te         0.41964       7.41034       33.2311
Te         1.75004       38.9173       36.5297
Te         1.94933       27.685       36.8592
Te         5.86662       30.7088       7.28127
Te         29.4081       9.39308       5.72627
Te         8.58185       31.6518       4.76116
Te         13.8543       34.5168       2.6128
Te         4.85225       19.6326       33.3304
Te         16.5904       10.1986       26.1934
Te         35.0008       0.925232       19.9589
Te         20.832       39.8559       25.0786
Te         14.6533       22.8231       31.9128
Te         39.1317       37.3619       5.95691
Te         20.9825       28.8583       0.344294
Te         33.0778       34.4524       16.6765
Te         9.23396       15.5643       28.1509
Te         24.9778       9.20839       21.5024
Te         33.4091       34.7236       26.6366
Te         32.1187       26.3425       29.463
Te         26.0879       39.3437       12.1038
Te         32.5398       28.7453       5.64274
Te         17.9577       16.3273       22.9617
Te         0.477887       21.9967       27.9275
Te         13.299       35.1479       35.1443
Te         34.6012       9.01971       11.7431
Te         14.8982       18.0201       8.10324
Te         1.79703       27.8353       29.1094
Te         35.6612       40.0565       6.55731
Te         26.0472       32.9814       39.3511
Te         38.5467       18.425       37.0405
Te         23.6078       15.1849       33.996
Te         3.51256       31.4802       30.0339
Te         13.4605       1.42912       12.4895
Te         7.5319       18.5344       14.4995
Te         22.6709       35.1034       11.1937
Te         37.0136       14.511       9.04034
Te         29.6815       14.069       9.82736
Te         40.3634       7.83561       12.5901
Te         30.1386       33.5715       0.0142843
Te         29.1334       14.4713       37.53
Te         35.1652       11.9641       24.368
Te         40.4365       24.6822       36.9092
Te         9.6595       9.45907       35.4169
Te         38.6375       38.26       16.654
Te         16.7347       36.8143       18.7934
Te         37.0062       26.7582       15.6534
Te         20.1199       26.3685       3.36404
Te         2.13782       13.0531       28.6867
Te         32.2634       32.4196       37.1656
Te         4.68691       11.1775       31.1337
Te         16.897       23.5108       36.86
Te         4.97924       17.3301       11.1163
Te         19.8815       17.5472       2.37435
Te         34.7291       6.93943       0.911823
Te         15.4433       40.2114       7.95012
Te         38.4274       27.4094       20.8995
Te         25.7862       2.6456       17.8906
Te         35.7221       2.70469       23.6904
Te         26.3902       6.50597       28.7259
Te         27.6488       21.8387       21.8628