30720
 Atoms. Timestep: 200000
Te         16.5033       20.2321       16.0977
Te         40.8262       20.7347       14.3665
Te         57.9213       20.7515       10.9362
Te         77.921       17.0302       14.0055
Te         18.8743       41.4345       16.1376
Te         36.0621       46.1301       15.0958
Te         59.1004       40.8897       11.1178
Te         79.6342       38.7425       15.1846
Te         20.8684       64.7521       14.4124
Te         36.2558       62.1808       16.0749
Te         60.8664       63.1454       15.1375
Te         81.4022       61.8403       13.0302
Te         17.5431       1.63807       14.1275
Te         38.3209       80.8115       20.859
Te         61.5418       3.33005       10.953
Te         79.5639       1.57726       14.3895
Te         17.144       22.1329       34.0786
Te         38.2933       23.316       34.8689
Te         59.2844       19.1666       33.6552
Te         79.7291       20.4882       35.6717
Te         21.4319       39.9318       35.9988
Te         37.2962       43.7827       36.9985
Te         61.5193       38.6491       36.8634
Te         79.9797       37.3097       37.6727
Te         17.1182       63.7692       33.9622
Te         41.8007       64.1416       34.358
Te         57.5501       62.8581       37.717
Te         78.0093       61.3493       39.8269
Te         18.2366       1.32777       38.9439
Te         39.245       83.1329       34.9544
Te         61.5566       2.04022       36.1367
Te         78.9631       0.0550147       34.9589
Te         15.3107       20.3663       57.3265
Te         37.8966       21.2064       55.1366
Te         56.8807       19.376       61.0257
Te         0.628643       17.0603       56.6816
Te         19.2891       43.3802       56.868
Te         40.3674       42.7676       58.5291
Te         61.6817       42.2675       56.1788
Te         81.6053       37.2114       56.8554
Te         18.7678       63.3048       53.4384
Te         35.2895       62.9783       58.4811
Te         59.3059       61.7696       56.8351
Te         80.0767       66.8588       57.0746
Te         17.4911       0.632702       56.4999
Te         40.7083       1.51927       54.7201
Te         59.9838       83.1717       55.8345
Te         80.2868       1.84294       56.0073
Te         21.4585       22.4229       81.4101
Te         37.6765       18.3679       71.4584
Te         59.3282       21.7927       75.6555
Te         79.9922       22.8477       79.7158
Te         20.388       41.1924       77.992
Te         40.9682       43.9121       80.8262
Te         60.8794       44.4064       79.3468
Te         82.6927       44.0854       75.1477
Te         18.2937       64.118       78.2133
Te         36.5329       62.8945       77.0366
Te         60.9361       63.4058       80.2777
Te         81.6524       61.7579       77.1567
Te         12.3089       0.216559       77.0708
Te         38.8175       0.0939919       79.5069
Te         57.0859       82.9618       78.4395
Te         80.658       81.7136       76.8445
Te         17.7563       19.5714       8.32772
Te         36.7224       18.0454       3.90318
Te         59.1003       19.5246       1.03632
Te         78.1249       17.8282       0.450214
Te         17.676       36.666       8.30248
Te         36.6187       37.1256       8.05267
Te         58.9955       38.0485       5.23968
Te         73.9236       38.8667       4.19064
Te         19.1499       60.8801       6.71786
Te         41.3191       60.1132       9.06719
Te         58.8349       59.701       6.95071
Te         75.6118       58.6449       8.64209
Te         17.9409       81.3401       4.57621
Te         39.4852       80.6927       6.26768
Te         57.6865       80.0973       5.18544
Te         83.1171       81.7395       7.45268
Te         17.4128       14.9133       25.1443
Te         37.3448       16.9928       29.2865
Te         62.4659       19.9552       27.7255
Te         78.9371       15.5789       26.4825
Te         18.0431       38.5167       25.768
Te         34.2724       38.4384       24.823
Te         57.1732       35.335       29.9759
Te         76.8735       37.9784       26.8376
Te         15.4963       61.0432       26.9831
Te         40.1716       59.66       25.6112
Te         57.4531       58.529       25.9361
Te         79.7871       58.4628       27.6343
Te         16.7148       81.0344       21.3337
Te         34.3656       81.6472       23.9385
Te         61.477       81.3824       24.7163
Te         79.1637       77.15       26.0909
Te         18.3371       21.5194       46.1058
Te         39.7985       17.2739       50.2061
Te         58.7463       15.9762       49.5539
Te         78.9872       17.5907       48.7971
Te         16.8542       37.6029       46.5891
Te         35.5413       34.8245       46.955
Te         59.1866       39.6588       47.1589
Te         82.1921       38.3048       46.6254
Te         19.1085       59.4724       47.96
Te         38.9579       59.8849       46.4408
Te         59.5127       57.8308       47.1197
Te         79.7391       57.605       46.345
Te         15.7779       0.129942       46.9152
Te         34.2509       80.8759       40.5991
Te         57.3297       80.2288       45.7302
Te         81.6115       78.9062       47.7641
Te         21.5397       18.1454       72.2674
Te         37.5317       15.5704       68.299
Te         60.5864       21.6491       66.559
Te         78.6382       17.8803       68.7803
Te         20.6496       38.3212       69.5467
Te         41.0443       38.711       66.3656
Te         60.534       39.2551       66.3136
Te         79.0443       40.6059       71.0113
Te         14.9269       59.2465       71.9552
Te         36.4915       60.0107       66.6024
Te         61.8497       59.6766       67.2505
Te         77.9843       58.9348       65.7517
Te         16.0812       80.3379       68.0625
Te         33.2271       80.8317       63.6803
Te         56.3199       80.9646       67.2853
Te         78.1451       0.351839       65.9284
Te         9.94948       4.44738       14.0334
Te         26.9299       6.89902       13.6683
Te         48.3452       5.17354       15.3519
Te         67.2967       5.85913       14.8948
Te         6.88283       29.7024       13.3336
Te         27.9422       27.8795       14.2658
Te         47.8686       26.8003       14.0417
Te         70.6572       26.684       17.6177
Te         7.35589       46.6674       15.2056
Te         25.2451       49.3456       17.5818
Te         52.6286       42.4325       19.0066
Te         69.4702       46.8482       14.8905
Te         8.62248       69.2434       14.4584
Te         29.6073       66.9265       18.0804
Te         47.1347       67.1619       14.0334
Te         69.9695       69.8682       16.3873
Te         6.75853       3.61714       39.4893
Te         28.2743       4.60652       35.4336
Te         46.8991       7.81356       32.4083
Te         64.3679       7.37396       35.8639
Te         5.85663       25.0362       36.0158
Te         27.9091       24.3233       38.1706
Te         44.6643       26.4632       34.0864
Te         70.1435       27.664       40.6823
Te         4.25788       43.7431       36.3009
Te         25.089       49.4789       37.9358
Te         49.6468       47.2108       32.8439
Te         68.9095       47.7521       36.0959
Te         2.9229       66.9873       38.5631
Te         26.0179       68.8777       38.028
Te         46.0089       68.8647       33.0711
Te         71.0877       66.7275       32.5672
Te         8.61189       6.90034       58.4682
Te         28.8006       7.20393       53.1228
Te         48.8166       4.67158       56.7086
Te         71.96       3.54831       54.3659
Te         5.95841       28.9134       59.8405
Te         25.8145       27.8154       56.4818
Te         49.4255       25.4901       57.789
Te         66.3741       27.1787       56.4519
Te         6.01419       49.1613       57.8461
Te         28.8742       42.0923       58.2244
Te         50.8994       46.3112       58.2542
Te         67.2952       46.4208       57.7125
Te         8.31834       66.1143       52.2743
Te         27.0815       65.3316       57.1321
Te         47.9004       68.967       58.717
Te         70.5257       66.3412       56.406
Te         5.09264       3.29031       79.2989
Te         21.8493       6.18795       75.5083
Te         46.3845       5.60581       79.2203
Te         68.2761       8.85974       76.0334
Te         7.12591       29.1455       76.0685
Te         27.5678       27.8271       76.7361
Te         47.3989       27.2678       76.1201
Te         69.6816       27.2798       77.4769
Te         8.91134       48.8915       79.4556
Te         29.0726       47.5928       77.1084
Te         44.0427       43.2354       78.8263
Te         68.3358       44.8975       77.5182
Te         7.08654       69.1918       79.8417
Te         26.878       71.0334       76.4369
Te         47.2173       70.2166       77.339
Te         67.5076       67.4529       80.7238
Te         0.902081       9.52972       1.68209
Te         25.6415       7.84582       2.68571
Te         41.7413       5.69143       1.70435
Te         64.2843       8.14458       82.7683
Te         6.03212       25.0603       4.37487
Te         24.6416       29.4151       0.06659
Te         42.751       25.4758       82.7076
Te         65.8877       29.1315       1.60636
Te         5.90792       46.3984       1.68919
Te         24.6432       46.3543       0.6961
Te         49.1476       49.3898       0.261752
Te         67.59       46.8905       0.763252
Te         6.54453       69.0252       3.48793
Te         23.266       69.7176       2.40692
Te         43.5754       67.5842       1.01597
Te         65.3321       67.6221       0.782802
Te         3.41226       5.03452       21.4092
Te         26.223       5.67451       21.3183
Te         43.5978       6.87939       20.8694
Te         65.4681       5.31009       22.1736
Te         4.03162       23.9027       22.9538
Te         22.9851       28.4708       20.318
Te         45.367       31.6328       25.9273
Te         61.5795       27.2547       24.0657
Te         2.70153       46.1092       25.4812
Te         21.4196       41.9181       20.4081
Te         46.4426       44.3817       21.5836
Te         65.3281       47.7603       22.7985
Te         2.02417       70.7909       24.3796
Te         21.1207       62.7121       23.9471
Te         43.4549       69.4426       21.4929
Te         63.8806       70.3846       21.8831
Te         3.53993       3.21611       44.6137
Te         21.6156       8.90354       43.1357
Te         41.0646       6.95216       43.118
Te         63.2946       6.01141       45.7942
Te         5.34569       25.4929       44.0128
Te         23.0689       26.6125       44.4608
Te         40.4816       28.9939       45.1516
Te         62.149       24.7728       43.2935
Te         6.53958       43.4113       46.0905
Te         28.3636       45.2784       42.8931
Te         41.5579       47.0699       48.2431
Te         68.9155       49.6765       44.366
Te         5.23064       69.9938       41.0376
Te         25.4244       68.4858       44.6725
Te         47.2168       70.0254       45.2917
Te         68.436       67.4738       43.4792
Te         0.615985       6.21893       66.0819
Te         22.8757       6.41908       63.5391
Te         47.822       5.95187       63.0929
Te         63.3794       7.17866       63.0672
Te         82.5323       27.5332       59.8809
Te         26.699       26.3246       62.3465
Te         44.8754       26.6107       62.4325
Te         65.2757       25.6592       63.0026
Te         5.57104       45.5728       65.4808
Te         25.3245       46.3339       64.4384
Te         42.7921       46.5073       65.317
Te         67.9589       47.6596       63.9054
Te         4.21757       64.6246       65.1335
Te         20.3583       66.3285       65.4158
Te         43.4618       71.1915       66.014
Te         65.2695       67.6399       63.875
Te         18.3561       1.98819       7.66922
Te         36.3578       0.329662       8.8779
Te         60.0567       1.13548       4.46354
Te         1.87296       1.72396       6.75605
Te         19.9046       20.145       5.19875
Te         38.4637       21.821       3.75486
Te         60.3598       21.7139       7.74206
Te         79.7757       17.8451       3.74816
Te         21.0707       43.1332       8.10896
Te         38.3993       40.439       7.85533
Te         60.856       40.8377       6.7155
Te         79.9257       42.1499       6.59069
Te         20.5969       64.3437       7.40355
Te         37.1238       62.3255       9.53561
Te         61.1254       62.3572       7.50564
Te         81.6872       61.5839       6.55089
Te         21.1881       82.131       25.0198
Te         42.058       2.80934       28.8691
Te         59.8905       82.8633       28.116
Te         82.5244       1.24865       28.2661
Te         16.5635       20.2328       29.3714
Te         39.7151       20.5537       28.4555
Te         60.5597       21.6106       30.658
Te         82.5703       19.3226       26.0394
Te         18.761       41.8488       29.6376
Te         35.9039       42.6508       31.1283
Te         59.0098       42.3354       31.538
Te         0.211243       38.8723       30.0293
Te         19.2339       61.173       27.3009
Te         42.2915       58.3957       28.4082
Te         62.229       59.2401       30.0709
Te         82.6347       63.5975       30.337
Te         17.5817       1.28343       51.9826
Te         39.0249       80.8638       44.2277
Te         58.3841       0.73751       47.0385
Te         82.2529       82.9116       50.9544
Te         19.4289       22.5768       49.8415
Te         39.4558       23.3315       52.3189
Te         58.5305       20.0135       53.7006
Te         81.2078       21.9967       50.5216
Te         20.9122       42.3056       49.7827
Te         41.6803       42.6868       50.5214
Te         59.2494       43.9946       47.348
Te         81.6884       40.7878       49.4815
Te         23.5814       61.7245       48.7077
Te         38.7004       63.2581       49.1294
Te         62.4643       63.1601       51.0322
Te         83.0652       64.8216       50.5185
Te         18.3149       1.25423       73.5529
Te         37.7604       82.1876       70.6544
Te         60.1741       0.94167       72.3918
Te         80.9416       1.61478       69.7342
Te         21.1031       20.0944       67.0723
Te         38.7921       19.157       67.4428
Te         60.4128       24.374       69.0427
Te         82.4415       21.0845       74.6805
Te         19.8026       41.5564       71.3497
Te         37.179       42.0084       70.9141
Te         60.2066       46.395       68.5641
Te         1.14911       41.1055       69.4272
Te         18.2248       61.7873       72.3394
Te         40.4694       67.297       72.0443
Te         57.7926       60.6178       69.3364
Te         0.564719       63.3413       71.4102
Te         7.21814       1.86774       14.3331
Te         22.5526       4.39355       10.4044
Te         43.5132       4.53222       11.8577
Te         65.8603       1.76219       9.52141
Te         83.1018       21.4832       10.2354
Te         26.2559       23.921       12.7799
Te         42.4253       26.5519       9.15195
Te         63.8161       24.388       11.5229
Te         4.59524       42.1641       12.6408
Te         26.3108       47.0198       13.7888
Te         42.8995       43.0758       10.7428
Te         65.215       42.9522       12.6126
Te         2.71224       64.6158       15.0183
Te         25.0526       66.8783       13.3153
Te         45.3586       59.8837       10.0682
Te         66.6908       65.8794       10.0508
Te         83.0381       1.22621       31.7275
Te         25.1035       2.01159       35.5646
Te         48.3859       4.54211       28.4655
Te         62.6162       4.87791       33.1923
Te         6.55496       21.0979       32.0436
Te         25.688       24.1799       34.911
Te         42.0055       23.4391       34.0802
Te         67.2105       22.3755       33.8451
Te         3.48397       44.2147       32.294
Te         22.465       44.1412       39.0669
Te         42.9898       43.4564       33.084
Te         64.1286       43.097       33.0567
Te         2.21013       65.8166       32.4674
Te         26.1361       63.3167       32.7582
Te         44.3398       64.6386       31.8027
Te         66.7273       65.0082       36.3607
Te         5.11464       2.82389       55.8816
Te         24.8896       3.60921       53.346
Te         43.4169       4.15079       54.6228
Te         67.992       1.79416       52.7673
Te         5.12926       21.6917       53.4647
Te         22.1781       24.7897       51.5543
Te         47.087       23.3199       55.9537
Te         63.7459       26.4663       53.5277
Te         1.85767       42.4177       53.3864
Te         23.0583       47.9741       52.52
Te         45.1357       43.9454       54.9955
Te         67.7623       43.6711       53.4098
Te         5.17712       67.2136       54.3508
Te         26.1601       66.4826       53.6348
Te         44.9305       62.9934       57.6325
Te         63.178       66.371       52.8783
Te         3.92283       3.1476       75.4948
Te         23.3204       2.73844       71.9242
Te         46.4115       0.615152       77.0655
Te         66.2514       3.69811       69.3464
Te         3.00112       27.129       75.8405
Te         29.7686       24.2986       77.4629
Te         43.3986       24.6165       72.9022
Te         57.835       22.5719       71.4429
Te         2.99229       43.5535       75.5524
Te         26.7121       44.169       77.5375
Te         46.9485       42.0293       73.9992
Te         66.6571       45.4942       74.5097
Te         82.6527       69.2483       73.0541
Te         23.5209       60.5292       73.6038
Te         45.7121       67.7326       73.5538
Te         62.5141       66.5643       73.5742
Te         10.1398       9.48678       0.180166
Te         29.5624       11.0066       5.56499
Te         48.0368       12.4238       1.73762
Te         70.1732       12.7574       3.59781
Te         13.7204       33.0342       3.85429
Te         32.3212       31.5905       2.40853
Te         48.5334       32.385       1.87507
Te         73.0573       32.5188       4.17341
Te         8.94989       51.1635       3.6058
Te         30.9425       52.6264       3.28163
Te         50.0007       49.4636       4.95788
Te         71.7476       53.5698       4.76592
Te         8.68511       71.348       5.67222
Te         30.0598       73.1481       6.10082
Te         51.4072       73.8325       4.49157
Te         72.4591       75.0731       2.27721
Te         9.46726       6.2892       23.8136
Te         30.286       8.52858       19.5273
Te         53.7211       10.3712       25.8855
Te         73.8114       11.808       22.3803
Te         4.34612       33.5617       24.3822
Te         31.122       32.3369       24.2385
Te         50.8124       29.9334       24.5932
Te         73.8404       29.9361       27.2551
Te         9.77425       45.9231       25.4595
Te         32.4872       48.5331       23.5549
Te         52.4338       48.9189       23.5937
Te         73.7095       53.6255       21.8361
Te         9.17222       69.5764       22.9221
Te         31.8248       74.4501       21.8684
Te         51.4933       72.6587       20.5914
Te         74.3649       73.9214       22.8912
Te         10.6282       8.31924       46.3689
Te         32.1911       12.5084       46.5864
Te         52.1351       9.61254       44.7687
Te         73.9266       8.87641       43.6648
Te         12.8736       31.58       44.1374
Te         33.1907       35.271       44.4047
Te         53.7659       31.3179       44.4866
Te         73.3268       30.5435       45.3775
Te         8.16275       51.9164       46.1601
Te         29.8286       50.6542       47.5221
Te         49.2208       55.8152       44.0587
Te         75.4298       54.6393       46.8872
Te         9.87486       69.9088       44.5475
Te         27.7147       76.3105       43.4228
Te         53.1115       70.5366       45.8713
Te         76.2361       71.6128       42.1403
Te         11.7617       10.1335       68.0713
Te         30.9771       9.46162       64.6862
Te         53.29       8.42815       68.2882
Te         74.8663       11.9449       65.3583
Te         10.4929       33.1044       64.5666
Te         33.3866       29.724       65.8306
Te         50.5634       33.6598       63.6472
Te         72.9043       33.2942       66.9797
Te         11.3164       51.2167       67.3142
Te         32.044       50.7293       65.2723
Te         50.0688       53.3122       64.5795
Te         73.3824       52.3209       66.6489
Te         11.4484       69.5601       65.6271
Te         27.6042       74.3758       68.2043
Te         53.2676       75.2604       65.8908
Te         70.2279       73.8507       65.6451
Te         17.3994       8.12596       15.7726
Te         41.2148       9.71034       13.8714
Te         60.3761       8.16782       16.2031
Te         80.2997       9.97885       15.8896
Te         20.1807       31.7065       17.154
Te         38.3807       26.7455       17.7225
Te         58.6524       30.0374       17.5539
Te         81.2476       28.0513       18.8847
Te         18.7724       50.2886       16.4504
Te         38.0772       49.0446       14.6976
Te         56.9389       47.4278       16.9042
Te         2.0267       50.7879       18.3793
Te         19.3397       73.0363       16.8204
Te         35.8457       72.0071       17.8227
Te         62.6005       71.3112       14.8492
Te         81.2678       73.3025       16.1677
Te         18.6044       9.79667       40.6963
Te         39.0286       8.42567       36.3414
Te         58.3246       11.0124       36.3199
Te         80.4018       7.73671       37.8887
Te         18.0332       30.4921       39.0164
Te         38.7221       34.3251       36.7206
Te         61.6788       30.6059       39.9076
Te         79.9655       27.0982       37.0153
Te         14.4521       48.5498       38.3455
Te         40.5536       53.6034       34.5212
Te         61.1566       49.0899       37.5913
Te         80.8748       49.9785       38.7212
Te         19.3984       71.8561       36.5393
Te         38.024       71.0184       38.3536
Te         60.1615       70.6582       36.2315
Te         81.6064       71.9706       37.4757
Te         21.4504       6.43918       57.891
Te         38.4036       11.4658       60.346
Te         58.3978       5.92629       57.2016
Te         82.3965       9.42979       57.9018
Te         20.0673       27.6443       59.2468
Te         38.6538       31.6114       58.2657
Te         61.0536       31.5834       57.3569
Te         81.1236       30.5865       58.7251
Te         17.1942       50.1495       58.9043
Te         41.0503       49.2883       58.405
Te         61.7213       47.2425       61.2936
Te         80.1219       50.2476       59.6815
Te         17.5659       72.0352       56.7131
Te         38.2309       70.2102       61.1911
Te         63.0312       72.6554       57.6158
Te         78.4183       72.5271       60.2626
Te         18.2105       11.261       78.7553
Te         38.0542       9.56345       79.7338
Te         58.4959       10.8269       79.819
Te         80.8859       12.8341       78.1925
Te         18.523       30.3211       77.8496
Te         38.7589       29.6885       79.0727
Te         54.9988       33.2673       81.7713
Te         83.0553       29.8719       75.2427
Te         17.2505       50.9783       79.6515
Te         38.0892       47.94       81.4547
Te         60.4759       50.8183       78.2919
Te         76.7343       48.3024       79.7746
Te         13.6599       72.6632       79.8288
Te         33.7956       72.1107       78.1248
Te         60.498       71.8455       77.5898
Te         77.5806       72.5888       77.8973
Te         3.15539       15.4393       0.702684
Te         23.4929       14.6657       3.24099
Te         41.589       15.5932       1.43517
Te         63.698       15.1111       0.241484
Te         0.213527       37.2227       2.52672
Te         22.3977       35.5569       2.1601
Te         42.5643       34.9318       1.60632
Te         63.8157       34.8518       3.56764
Te         82.1975       56.7509       3.66517
Te         24.2788       55.7319       5.25051
Te         41.9118       55.8395       4.10833
Te         65.152       52.7267       3.82619
Te         2.40243       76.7862       82.3594
Te         21.9433       76.2414       2.10244
Te         43.0987       77.3414       0.51752
Te         65.4675       76.4632       4.19707
Te         82.6951       14.6967       18.4498
Te         21.702       13.1894       21.4758
Te         42.0382       15.2063       19.4367
Te         66.9166       12.53       20.2326
Te         4.15215       38.0908       19.6913
Te         26.608       32.2563       24.1069
Te         42.3674       35.5417       25.8067
Te         64.6722       33.848       25.0219
Te         0.285817       56.6793       23.3998
Te         22.6807       56.7129       24.614
Te         43.782       53.9729       20.2614
Te         68.178       54.6122       22.3754
Te         2.72831       77.9831       22.4188
Te         26.2827       75.092       21.4836
Te         39.3562       73.7373       19.5494
Te         63.6602       80.499       21.5018
Te         0.960111       13.3684       44.1833
Te         22.1439       16.0466       45.1161
Te         43.5293       16.0948       41.0154
Te         65.2617       14.1561       44.7974
Te         4.49163       30.6146       45.8879
Te         20.1734       33.627       39.9305
Te         45.2281       36.274       47.1861
Te         67.0998       33.8353       44.1549
Te         2.73521       55.0839       43.5299
Te         25.573       56.4187       43.0726
Te         43.5335       50.4249       43.2758
Te         64.3395       55.5089       45.1203
Te         4.26665       75.7978       44.1614
Te         20.9474       74.306       41.9949
Te         45.607       77.689       45.5585
Te         61.5848       76.2334       45.1119
Te         3.84703       14.5005       65.8471
Te         24.0444       12.8768       68.6636
Te         46.1511       14.7073       65.8925
Te         63.4671       15.3544       64.5897
Te         1.55975       36.9872       65.5002
Te         21.7213       33.6024       62.9414
Te         47.1962       33.2192       64.9066
Te         62.7196       35.3351       66.2694
Te         83.1943       53.9802       64.9753
Te         21.9195       55.922       63.4439
Te         44.4508       57.9674       69.3382
Te         60.5275       56.244       65.1801
Te         2.26065       78.5883       66.3151
Te         20.6603       75.2113       64.338
Te         39.6225       78.9794       64.3383
Te         63.0563       76.6681       62.3007
Te         6.30254       18.9229       15.2484
Te         29.1447       15.6299       18.4979
Te         48.242       19.7627       18.2828
Te         70.3666       20.0881       15.1468
Te         9.34299       36.9453       15.5537
Te         32.6346       41.3764       13.4909
Te         48.299       40.8027       15.1597
Te         69.7019       39.9539       15.9335
Te         7.86665       60.9776       16.5868
Te         27.1236       56.7408       16.4535
Te         50.1207       59.7275       13.6744
Te         69.4269       63.9678       12.5169
Te         11.6849       79.4905       14.9115
Te         27.5927       0.614203       12.1557
Te         49.5067       81.1877       11.8146
Te         65.8389       81.6185       13.2666
Te         8.52595       14.0415       33.9667
Te         25.3334       17.0787       36.7759
Te         45.3821       22.4667       34.4351
Te         71.6633       17.3474       39.1617
Te         9.11043       39.581       35.9078
Te         27.2926       39.145       37.5837
Te         49.761       41.0557       34.3392
Te         70.1648       38.703       39.3267
Te         9.27339       63.6023       36.98
Te         27.564       60.1379       34.4882
Te         49.7531       61.1098       34.4024
Te         72.6576       61.5176       35.8114
Te         6.0036       79.3044       36.731
Te         29.0558       82.5136       33.7696
Te         50.9651       80.0007       35.026
Te         68.5074       0.155665       36.032
Te         7.59945       16.9441       57.6142
Te         26.0169       16.5919       55.4039
Te         51.2238       14.5253       55.6704
Te         69.4574       19.6638       56.1925
Te         7.70128       39.4907       56.5085
Te         29.1831       38.5645       55.8929
Te         51.0679       40.6662       58.1255
Te         71.3       38.0518       53.8857
Te         6.99569       60.8185       58.1719
Te         30.7793       60.7117       55.9642
Te         48.4111       64.7999       57.2123
Te         70.6283       62.9738       57.9176
Te         7.50485       77.7444       54.5961
Te         31.5354       0.878305       56.5319
Te         51.437       82.4292       54.2507
Te         69.9946       80.3089       53.7163
Te         7.02275       19.9632       76.4043
Te         31.3951       19.2923       81.1606
Te         43.407       20.6305       76.7381
Te         69.4543       17.2541       77.0629
Te         9.54432       38.6355       77.7417
Te         26.8968       37.1639       78.6088
Te         53.4063       39.345       73.693
Te         68.276       37.6679       79.5773
Te         5.9348       61.3867       79.4243
Te         27.6914       62.2994       75.8496
Te         47.0611       60.929       80.3453
Te         70.3183       64.018       76.073
Te         6.68537       82.6194       79.7312
Te         28.4122       82.8833       77.7986
Te         44.9775       80.9758       80.5913
Te         69.3741       80.2275       77.2117