480
 Atoms. Timestep: 200000
Te         19.7925       19.0909       17.7944
Te         17.4234       14.9328       8.78345
Te         3.63872       4.42382       16.6968
Te         20.0313       7.6645       2.37496
Te         20.507       18.9873       7.36008
Te         3.17888       1.2418       12.0264
Te         4.80277       11.0098       0.465067
Te         16.2976       14.7215       16.6231
Te         4.82206       13.6024       3.22074
Te         9.43906       1.1516       15.1072
Te         1.72916       1.23897       16.7056
Te         4.08263       6.52726       3.47256
Te         0.58296       0.773799       4.99809
Te         7.62546       4.09476       16.3441
Te         1.13495       10.2487       2.54186
Te         2.27889       4.30927       5.64526
Te         4.93615       12.1617       10.6215
Te         7.99952       19.1899       18.194
Te         6.52928       15.2871       7.17499
Te         13.1271       18.8075       13.9072
Te         8.7725       15.372       4.19395
Te         7.14194       2.53281       9.60471
Te         15.457       20.1571       16.7177
Te         14.5517       20.132       10.0128
Te         8.92279       4.59485       12.7116
Te         7.68138       7.67177       20.3523
Te         12.2186       11.0163       7.40562
Te         12.0648       15.0395       17.0671
Te         6.15581       9.73872       3.84243
Te         8.29692       12.4491       14.0248
Te         9.49376       1.23091       1.2184
Te         17.8464       18.4982       10.3865
Te         19.1323       2.97833       17.014
Te         0.333451       5.00036       19.4261
Te         17.3906       8.74734       5.06749
Te         1.55183       12.2502       20.3867
Te         1.08932       13.8515       3.99043
Te         12.1941       5.92826       14.0583
Te         13.7346       20.6415       20.4323
Te         12.181       16.5934       3.35786
Te         14.4999       15.1396       13.3769
Te         7.11676       19.3521       11.9198
Te         1.94551       3.04602       2.22014
Te         4.37585       12.2234       6.75373
Te         7.32656       11.7393       18.5163
Te         4.33817       18.8609       17.795
Te         5.76983       16.1256       14.7147
Te         9.30593       18.3071       1.01418
Te         3.58429       19.5345       8.69833
Te         5.6532       20.017       1.35343
Te         13.4563       3.2902       2.5933
Te         13.1585       5.28332       10.3214
Te         9.86111       4.55458       20.5401
Te         16.6548       1.9351       12.9605
Te         10.5853       10.617       16.2367
Te         14.6513       19.052       5.88739
Te         10.7557       10.4876       20.103
Te         7.52875       15.2005       11.8622
Te         15.2766       4.71182       17.5593
Te         18.4768       11.3768       17.9371
Te         14.403       13.0422       9.50386
Te         14.3896       15.1408       5.8289
Te         15.866       10.2635       0.0340428
Te         14.6854       13.8889       0.964135
Te         17.3087       18.3138       14.1765
Te         20.0394       0.139118       14.5488
Te         20.5816       18.4973       2.75941
Te         1.02374       17.9918       10.9423
Te         2.71659       7.00073       12.1146
Te         18.8195       11.9603       1.89463
Te         3.9173       9.03334       8.1509
Te         3.14246       10.0064       17.6508
Te         20.6066       11.6991       14.9621
Te         2.5608       17.8997       14.622
Te         17.3091       0.898228       6.69204
Te         2.96234       16.2689       7.09762
Te         19.5494       4.59748       13.6661
Te         15.8207       2.2741       19.6237
Te         6.12559       7.29674       11.3665
Te         3.8991       7.01703       19.9354
Te         5.67794       5.76148       7.64191
Te         1.77219       16.1118       0.0685111
Te         0.844769       10.3662       11.3804
Te         3.16301       13.5496       14.8317
Te         19.1454       0.25801       0.00584144
Te         4.01218       15.7482       10.7965
Te         1.57419       6.65901       15.3659
Te         8.09868       4.60669       3.60716
Te         6.32524       1.72632       19.053
Te         8.37988       1.99911       5.48847
Te         8.81129       11.0984       6.37527
Te         10.5233       7.58654       10.8846
Te         12.0514       16.0231       20.6566
Te         10.9698       18.202       6.66138
Te         7.68223       19.4464       4.33596
Te         8.38711       10.5514       9.97335
Te         8.52289       15.2723       19.3314
Te         10.4746       18.5054       11.4026
Te         12.8694       2.15322       13.6503
Te         11.6924       5.40315       5.10012
Te         16.2082       3.91439       9.76347
Te         11.0578       6.46194       17.8633
Te         16.4906       17.7869       1.40611
Te         16.2291       12.1095       4.38511
Te         12.9125       10.4654       11.438
Te         11.7303       18.9281       17.4224
Te         12.6716       20.7602       3.18133
Te         5.49401       0.232295       14.7427
Te         13.7779       9.41825       3.87951
Te         19.6999       3.54501       7.17304
Te         20.3428       5.8142       9.77527
Te         18.0865       8.36243       12.2921
Te         5.01799       10.6141       14.0896
Te         18.2285       13.53       12.2045
Te         11.1311       14.2404       12.3121
Te         18.7486       15.4745       0.053156
Te         20.1166       15.8742       14.0985
Te         11.9158       2.19517       17.5901
Te         8.46468       8.61474       13.9914
Te         0.113123       11.837       6.7512
Te         6.13775       7.61187       16.844
Te         18.37       8.24977       16.5386
Te         17.6184       6.75067       20.4734
Te         0.81464       14.0928       10.1558
Te         4.34212       13.8162       18.2065
Te         3.07259       17.6687       3.62298
Te         5.35754       3.84065       12.8902
Te         2.63986       20.7378       20.1727
Te         4.16615       1.06319       5.75968
Te         8.90214       7.63976       6.25278
Te         10.2444       4.19748       8.25361
Te         5.13094       3.94399       0.788043
Te         5.4925       16.2775       0.712642
Te         10.0805       15.0314       8.65904
Te         0.485428       8.54413       19.2213
Te         7.24426       19.0248       8.2858
Te         14.4368       8.53415       18.4894
Te         15.1533       5.59612       6.84247
Te         13.508       16.5131       9.4149
Te         9.45169       8.34196       2.60295
Te         11.4072       11.9681       3.88029
Te         16.18       6.22687       14.2156
Te         16.4267       5.30358       3.25744
Te         8.73391       12.7942       1.40588
Te         12.6195       6.9528       1.29338
Te         13.8696       1.56485       7.46406
Te         9.24774       16.3514       15.7384
Te         11.3024       1.39099       10.3099
Te         17.5168       0.395641       3.37365
Te         20.2684       0.629175       10.893
Te         15.8913       11.0644       13.993
Te         19.0455       3.44124       1.56447
Te         1.16676       7.86566       6.05076
Te         14.3116       12.1371       17.4902
Te         14.9923       8.82342       8.57633
Te         18.3427       10.0709       9.14138
Te         15.5274       17.6323       18.9608
Te         18.129       14.938       4.84914
Te         2.01277       3.33122       9.12151
Te         0.0825277       15.5975       17.6043
O         16.3738       19.8582       5.52313
O         3.12647       2.52262       15.9956
O         20.4632       20.3662       19.2404
O         9.00446       6.49036       19.5509
O         4.08796       15.6163       8.87987
O         17.0691       12.8703       2.75266
O         0.213987       12.1481       3.72408
O         7.40161       6.00457       6.94819
O         4.54702       15.6224       6.23428
O         9.52546       17.5048       20.034
O         0.908912       19.2804       4.26545
O         14.251       6.57727       14.2973
O         7.03824       2.99895       4.19627
O         14.0777       18.9775       17.4722
O         9.00544       11.8758       16.0002
O         4.78704       12.1518       4.91552
O         7.93062       13.9776       2.93463
O         3.31939       12.7652       19.5764
O         3.51221       13.8137       11.0121
O         6.82143       19.0176       0.207809
O         15.6349       14.2692       8.24091
O         12.7044       17.5735       19.6698
O         13.7378       18.8799       8.77733
O         12.556       11.3402       5.57604
O         8.67509       6.94537       1.44153
O         16.4383       5.13164       5.33672
O         16.7528       7.96894       15.2962
O         3.54392       18.1709       7.13692
O         18.0984       15.7527       6.59327
O         6.71938       15.9818       19.8265
O         8.38772       6.29733       11.8252
O         19.9549       14.9008       10.7988
O         1.52219       5.42157       16.8691
O         17.2386       12.9648       17.6943
O         1.02156       1.0612       14.7932
O         1.61699       15.3428       19.0527
O         11.9185       0.342231       17.9774
O         20.3181       16.4923       0.409348
O         16.1516       14.944       0.454846
O         8.71034       10.6146       13.4251
O         19.1649       20.263       3.61347
O         17.1673       14.1641       10.6048
O         5.45223       7.76974       8.1918
O         5.16395       5.80324       12.4693
O         12.4665       12.6424       17.2922
O         19.4529       13.7838       0.862529
O         5.73157       5.03035       9.39998
O         4.84901       3.08804       19.7823
O         6.339       12.0433       14.5958
O         20.1792       2.0147       0.409359
O         7.50594       13.1548       12.0973
O         13.7116       9.62362       7.22186
O         18.9284       1.50528       15.5487
O         8.81286       3.83855       1.9423
O         5.7793       15.0566       13.0537
O         7.09483       8.78683       15.4644
O         9.60775       3.94075       4.78429
O         14.4412       3.57591       19.1353
O         19.9947       1.33793       12.629
O         18.5782       20.3116       11.0086
O         17.151       5.60507       1.09626
O         16.6532       4.96298       8.02444
O         10.9762       4.71609       18.8521
O         18.029       19.8858       14.9701
O         1.33981       8.11281       11.3511
O         12.679       7.17809       18.7747
O         7.68987       0.816936       10.0562
O         12.0984       19.4908       15.4831
O         0.290158       2.74064       8.40033
O         19.3864       9.13997       7.80172
O         19.3266       4.39647       15.7285
O         15.0245       12.3527       20.5153
O         12.7988       12.3493       10.7387
O         15.0934       19.2731       20.4212
O         9.28327       11.626       20.253
O         20.272       6.74871       19.0172
O         10.5452       6.65399       6.63242
O         4.23618       8.12805       11.1973
O         4.1677       0.372473       10.6126
O         3.33507       5.3659       15.0212
O         13.4601       6.5821       8.9755
O         6.09944       18.8516       3.33101
O         11.7539       10.1788       3.33375
O         1.81182       14.3639       0.941433
O         0.953246       8.48055       1.4923
O         7.0353       1.61947       0.0263777
O         14.9723       16.9551       5.12139
O         13.3735       20.466       13.1093
O         6.46446       18.9224       16.8762
O         11.7702       4.26997       6.70727
O         16.4376       7.33099       12.3379
O         1.35594       4.88921       10.1988
O         11.1256       14.9561       18.7854
O         6.9067       14.9294       5.25211
O         16.8244       16.7167       9.52731
O         13.4546       9.79886       17.2918
O         14.2384       10.3586       9.99905
O         16.7993       18.5763       12.2862
O         13.4418       20.7771       6.16067
O         10.0019       8.9624       0.179252
O         11.4626       16.9341       16.6338
O         16.1555       8.0447       20.578
O         8.69445       8.56662       10.2191
O         12.8084       4.17216       13.75
O         15.3438       14.2234       4.37755
O         18.9635       7.98335       0.791149
O         12.3674       2.36128       11.6945
O         14.8755       2.67547       13.446
O         3.95207       19.0937       1.59693
O         16.4538       16.1032       17.9834
O         6.63383       8.5374       12.767
O         1.97074       6.96577       19.6946
O         18.1656       15.2012       13.1645
O         1.90834       15.8543       10.7237
O         17.8623       1.64499       4.95891
O         8.94716       7.11702       4.24087
O         17.5108       10.4832       4.11275
O         19.4028       12.7503       13.9564
O         19.8603       9.82988       10.9349
O         2.46128       11.1554       0.91861
O         17.4422       3.66133       13.2683
O         4.86602       10.2407       6.71622
O         1.57803       10.679       6.76741
O         10.5539       12.2286       1.90334
O         3.58271       17.5906       16.5408
O         19.6937       9.22907       18.1712
O         7.59548       9.44093       2.49423
O         12.8337       0.809209       9.33182
O         16.2722       10.3661       18.9884
O         14.7019       14.1227       17.6495
O         1.5207       13.4984       5.83326
O         17.7579       10.3004       16.3762
O         9.73626       20.1503       0.346589
O         1.56974       17.7825       12.7728
O         20.5096       5.16486       0.453724
O         13.2363       14.5781       9.93044
O         7.48623       13.6543       18.6699
O         18.1131       4.36033       3.28664
O         2.7548       13.6129       16.8123
O         4.16178       16.2088       2.9203
O         12.9804       16.4274       7.62668
O         16.4475       19.56       9.7015
O         10.358       2.20119       13.7746
O         0.792796       20.1319       11.7053
O         0.197607       2.6893       5.75935
O         20.0665       14.8371       4.81421
O         19.4007       4.47569       18.6012
O         13.3052       12.7191       7.85576
O         16.5146       3.25545       17.779
O         14.0019       19.332       4.00257
O         17.7382       13.0554       5.50674
O         11.8544       5.79242       16.2179
O         13.9999       1.4556       3.25109
O         3.62534       11.532       15.0502
O         20.5081       3.41211       2.77311
O         5.50898       7.74702       4.3633
O         4.50425       0.103785       20.4048
O         7.68173       2.4985       7.13749
O         19.8847       9.59257       2.95918
O         12.6665       14.5697       13.7909
O         1.55657       17.4469       2.30791
O         16.4241       10.1142       8.09142
O         7.11019       3.20339       18.0558
O         1.60008       8.57999       4.27051
O         16.2928       2.06702       11.0926
O         10.4229       12.5748       12.8008
O         9.80952       8.84907       15.6389
O         15.3942       19.1541       15.0407
O         4.17793       11.4734       12.3392
O         15.1563       0.362911       8.41945
O         2.30946       16.6076       5.09961
O         11.1963       18.317       13.2177
O         7.80181       2.28592       15.1169
O         4.68835       1.6326       13.6255
O         7.14836       20.6282       13.7094
O         13.4238       6.38027       5.32947
O         18.4015       6.17795       13.9407
O         16.1112       6.08992       18.7904
O         7.1143       17.5991       12.6569
O         17.5462       8.58384       10.1897
O         4.05477       9.21314       19.2355
O         11.8458       16.8649       10.3083
O         3.02261       7.85225       7.00309
O         15.5925       1.93055       6.49897
O         4.34776       6.23264       18.2593
O         18.1901       7.33023       3.93991
O         6.73776       3.45219       11.5176
O         4.46649       19.6096       13.9413
O         10.1526       5.50372       13.9318
O         12.6564       15.1081       4.91927
O         0.868505       12.612       11.4462
O         13.0871       2.15839       16.01
O         2.20148       0.312801       5.97542
O         2.70943       7.73233       13.918
O         4.35295       9.25478       16.4229
O         18.3777       2.19669       7.77755
O         4.6577       20.6896       7.17405
O         9.57441       11.4584       4.34672
O         19.8615       8.33776       15.3215
O         1.81635       8.52518       17.5797
O         14.9662       12.087       15.5686
O         8.44357       16.3602       17.5252
O         15.6582       8.29356       4.32696
O         19.3473       15.1158       18.6248
O         8.65102       20.437       3.02647
O         3.79687       16.4578       13.9211
O         7.48179       6.21031       16.9039
O         5.89983       13.2054       7.46408
O         15.7251       7.46936       7.03919
O         7.06024       17.529       7.01798
O         6.70721       11.308       20.3577
O         9.93607       9.44476       6.46518
O         11.1351       17.7826       1.65436
O         9.17937       14.431       0.47179
O         19.402       15.8732       15.9696
O         2.9117       13.0956       3.10604
O         11.3817       2.68904       8.719
O         9.61983       19.0464       16.9726
O         3.98557       16.1637       20.3189
O         7.30205       9.65332       5.4039
O         5.42158       11.8933       2.28467
O         1.20383       10.823       19.0751
O         14.2051       10.9662       12.9922
O         15.1414       5.1443       11.0015
O         9.79058       19.671       6.4748
O         13.8739       8.42564       2.15014
O         3.80337       2.72446       6.67858
O         11.5907       9.25705       10.2917
O         14.947       15.5708       15.3006
O         11.213       7.10245       2.58874
O         10.5581       17.295       4.96596
O         13.9921       9.39598       20.2376
O         1.06583       13.2698       14.698
O         15.4418       3.59976       2.87685
O         13.5405       14.7257       20.2464
O         14.9691       0.738037       18.6687
O         0.841721       5.97091       5.41637
O         11.4224       20.0371       10.852
O         7.67246       15.2955       15.1109
O         4.97423       9.38084       1.36294
O         3.99425       2.6097       1.73583
O         7.35487       4.68833       13.9831
O         11.6707       5.03051       0.55137
O         19.3942       17.6194       13.7748
O         2.6149       19.1425       18.9578
O         0.10723       19.6772       1.29538
O         8.4871       14.4363       7.7382
O         19.2053       4.3253       9.06531
O         10.1214       2.24738       16.7217
O         19.7188       5.83704       11.5557
O         20.6471       12.3022       8.53808
O         1.21193       16.6202       15.24
O         10.3235       12.0665       7.29883
O         0.413896       2.69451       16.9927
O         2.89614       18.0819       10.1556
O         9.36321       15.1361       10.4857
O         13.6099       5.63706       2.35114
O         5.59103       4.15682       15.8709
O         13.2618       15.861       1.82424
O         16.3802       4.98327       15.9031
O         20.7335       19.8543       16.3753
O         10.2673       14.6106       16.1524
O         12.7382       3.60969       4.41606
O         14.1766       16.8022       12.4881
O         14.6756       10.9869       3.2521
O         16.4211       12.7547       13.138
O         7.8345       0.298573       17.8715
O         17.9746       1.7339       1.9806
O         0.308512       17.505       18.1376
O         14.6601       1.4746       0.403596
O         6.41867       6.25256       20.7494
O         0.89022       19.2619       8.85885
O         0.638017       5.55025       14.0027
O         8.93121       3.41495       9.72243
O         7.91848       10.4169       8.03154
O         17.0757       19.5159       1.76745
O         9.02776       19.6343       12.1149
O         17.9801       16.685       1.94526
O         6.62248       10.4568       10.6591
O         14.5266       3.41783       9.00141
O         3.79467       3.20114       11.6845
O         20.3646       0.116171       6.72391
O         19.9231       12.1741       16.9093
O         3.83954       5.73385       5.27942
O         20.7324       11.2241       1.108
O         6.18111       15.1484       10.4869
O         3.99955       20.4961       16.7787
O         17.9397       0.931651       19.4847
O         1.97235       1.67148       3.47872
O         10.3401       2.52769       20.7119
O         2.31972       4.57501       3.30824
O         0.578635       10.3816       13.3107
O         7.98995       18.379       9.98803
O         5.39341       19.0027       9.26334
O         16.5723       18.9139       17.8704
O         8.15743       16.8933       3.29221
O         1.50146       1.89378       10.6572
O         5.39058       5.19756       2.90598
O         11.2741       1.11796       1.92505
O         18.9087       19.2909       8.30956
O         4.96026       14.6016       15.7159
O         11.0147       5.44976       9.60095
O         17.2098       17.5438       20.2283
O         2.29574       1.44648       18.9098
O         7.11883       0.404367       5.32632
O         10.0441       10.3065       18.1464
O         5.3328       12.1248       17.7812
O         10.6633       15.3845       3.04673
O         9.855       15.2561       13.2135
O         2.14498       4.80603       7.59126
O         6.83965       8.39849       18.42
O         12.423       6.60947       11.7606
O         9.92259       16.8987       7.91595
O         13.3252       20.0359       1.564
O         17.8719       11.2544       0.360535
O         3.87064       11.2905       9.38018
O         10.3563       8.27557       12.7523
O         5.34726       14.4062       1.22013
O         17.4606       10.1463       12.7179
O         3.62351       5.13486       0.323201
