3840
 Atoms. Timestep: 200000
Te         17.3097       39.1288       18.4739
Te         37.7275       2.07139       17.1883
Te         16.0028       19.5786       17.0763
Te         37.6931       22.5931       16.7991
Te         17.4197       3.55832       34.0005
Te         40.1166       2.34112       38.1875
Te         16.9902       17.1777       37.7829
Te         40.0585       24.4179       40.7794
Te         16.1316       17.539       11.1529
Te         37.6112       17.642       10.164
Te         17.0552       40.8542       11.1061
Te         35.2581       1.0354       11.188
Te         18.2487       17.9899       32.1472
Te         39.347       20.0561       29.7074
Te         15.3345       39.9514       31.059
Te         37.7957       37.8849       30.9562
Te         5.05631       5.36099       16.6992
Te         26.1363       5.80211       16.0784
Te         4.65303       21.014       15.165
Te         25.9227       25.959       17.8009
Te         4.33176       4.28375       38.9043
Te         27.3389       4.24653       38.5644
Te         3.40008       24.9192       36.0537
Te         22.5093       21.5689       37.9316
Te         0.140648       12.0243       39.9773
Te         20.628       8.095       2.78897
Te         1.37788       30.6541       3.78649
Te         19.2642       25.7892       0.0212999
Te         0.817837       8.08324       21.9506
Te         22.7652       8.87705       25.252
Te         2.33024       29.1478       17.2516
Te         23.4956       27.3755       23.1722
Te         18.1527       40.8544       7.56648
Te         1.36725       1.5503       7.69482
Te         19.7017       18.2689       6.81262
Te         41.5997       23.4026       8.66872
Te         21.9278       38.6703       27.1078
Te         40.8217       40.1431       28.5847
Te         21.124       17.7391       27.9823
Te         41.4954       23.311       30.179
Te         4.36437       3.36025       9.24101
Te         22.5744       4.61837       11.4983
Te         5.35618       22.1104       9.37721
Te         24.5782       21.5746       12.5663
Te         1.86003       0.635082       33.2079
Te         24.253       0.466151       33.3244
Te         4.49566       25.0777       30.959
Te         25.5642       23.9417       32.8165
Te         7.32716       10.3373       41.4904
Te         26.2329       12.9674       37.6065
Te         5.91474       34.9554       1.95586
Te         22.5131       31.9001       41.3055
Te         3.11402       14.7117       21.341
Te         25.1835       14.2105       20.7856
Te         1.70529       32.8719       20.8045
Te         27.2797       33.6527       20.4817
Te         19.1612       13.3929       14.2937
Te         38.0931       12.9437       16.208
Te         19.4643       34.8878       15.9162
Te         39.169       36.754       16.7043
Te         24.5022       15.0216       1.93538
Te         0.358615       16.7029       38.3111
Te         22.9383       36.9986       38.8068
Te         0.333078       35.6851       40.3198
Te         1.82937       15.6531       1.82012
Te         23.3113       12.4395       4.34707
Te         4.54626       38.4631       2.71966
Te         24.6174       33.1705       6.9382
Te         2.8188       17.4496       28.528
Te         26.5653       17.3269       24.405
Te         3.03173       35.9457       23.8971
Te         22.1105       33.416       27.9146
Te         11.4941       13.833       17.6276
Te         28.3352       18.3618       16.6199
Te         8.32778       39.9632       16.4131
Te         27.2299       37.4917       14.6559
Te         9.14554       25.6345       38.6631
Te         32.8303       16.7645       36.6656
Te         10.9722       38.4793       38.0726
Te         27.7894       41.5302       36.796
Te         41.3345       0.656744       16.3695
Te         23.2865       40.5752       17.1391
Te         1.42964       21.1444       16.9541
Te         21.5984       19.2383       16.5979
Te         1.72298       2.13049       40.2093
Te         23.3909       1.46038       36.3073
Te         6.18411       23.4001       38.0708
Te         25.8269       16.7874       39.5334
Te         41.5345       8.42724       4.49217
Te         26.4699       6.73812       5.28633
Te         4.97117       32.4414       4.52982
Te         22.937       28.5822       5.36085
Te         4.16289       4.3811       24.6484
Te         25.1404       6.98586       22.8991
Te         1.26999       24.2034       23.8421
Te         26.0043       25.8483       26.1307
Te         1.07236       4.87599       5.65375
Te         22.5934       0.139765       7.94325
Te         3.02372       22.9528       6.166
Te         20.7421       21.6254       7.25808
Te         3.45919       1.37426       22.835
Te         25.8312       0.38309       30.1655
Te         3.12729       22.9713       27.5578
Te         22.8676       25.2705       27.3963
Te         12.3892       1.30609       19.7422
Te         30.9823       7.35148       14.2189
Te         6.13532       20.0745       18.2398
Te         30.3963       24.2352       16.1065
Te         6.85759       3.31146       36.5241
Te         30.1814       3.18364       36.7759
Te         8.32071       26.2265       34.2249
Te         25.5362       25.1476       36.4631
Te         4.2763       8.6697       2.62029
Te         24.1194       9.34201       2.49223
Te         2.61462       35.6182       4.47643
Te         19.1895       26.9329       3.43891
Te         3.15029       11.3444       23.4781
Te         23.8263       12.536       23.9681
Te         4.14101       30.2009       22.5803
Te         24.3764       30.8039       24.8285
Te         38.7668       4.58518       7.63029
Te         20.6237       3.98575       5.18178
Te         0.824715       26.9623       5.95445
Te         20.1676       22.7716       2.51185
Te         0.909951       4.2341       30.5251
Te         24.4942       0.699205       26.7234
Te         1.03921       26.2183       27.3533
Te         22.1058       24.8007       31.1483
Te         3.45697       11.2735       6.92785
Te         28.125       12.5532       9.18648
Te         4.11308       31.7432       10.4359
Te         25.7822       30.966       9.38686
Te         7.06711       5.84692       32.7977
Te         27.88       10.3145       32.4741
Te         4.98182       29.0161       29.6885
Te         25.2933       30.3917       32.6842
Te         3.99569       18.411       21.6767
Te         25.1884       17.2987       15.119
Te         3.92743       39.3715       16.6445
Te         25.6207       36.5337       18.6566
Te         4.08166       15.5319       38.3745
Te         29.4118       17.0711       38.1931
Te         4.08747       41.512       0.334702
Te         27.0545       0.0740225       40.1967
Te         8.67085       17.1828       4.96783
Te         28.8403       17.3175       3.0753
Te         6.95914       39.1191       6.37988
Te         28.5162       36.8045       4.86418
Te         6.91226       14.8504       28.2921
Te         28.0263       17.9178       28.7503
Te         5.99015       35.9823       26.6226
Te         25.6572       38.1993       22.3317
Te         16.4156       16.0112       16.0114
Te         37.1453       16.5844       15.7506
Te         14.7842       35.3016       16.6675
Te         36.1672       40.2131       16.505
Te         13.6522       14.5658       37.9592
Te         38.3889       17.0018       37.7752
Te         14.7015       36.9038       38.1358
Te         38.065       37.8287       38.0463
Te         7.26787       13.6621       7.58556
Te         29.9489       14.9986       5.83662
Te         10.5055       36.955       7.95429
Te         28.774       32.3923       4.12468
Te         10.1022       11.9882       25.2028
Te         30.281       14.3292       27.6416
Te         8.96545       32.9516       24.0348
Te         28.0414       36.2267       24.4903
Te         7.6744       2.74682       15.4405
Te         27.3882       3.05421       13.4876
Te         7.9042       21.0942       12.5351
Te         28.1795       24.8098       11.1352
Te         3.69867       0.982295       37.307
Te         28.6067       3.59299       33.1238
Te         10.6231       23.7176       34.284
Te         28.6011       26.1444       32.3773
Te         13.718       23.1389       16.7464
Te         34.2389       22.595       14.1509
Te         14.2691       40.4712       16.8746
Te         32.8656       0.914864       15.1881
Te         13.4491       19.0356       37.0986
Te         35.1837       23.2785       0.199784
Te         14.7179       40.9084       37.9281
Te         36.4493       41.0847       38.0111
Te         11.9338       1.76207       9.90425
Te         31.4481       40.9112       7.75164
Te         10.588       21.0663       10.0672
Te         32.4672       22.6661       6.8136
Te         12.8042       40.0113       28.0932
Te         32.3081       2.30496       31.1173
Te         10.6697       21.4301       29.3981
Te         33.4066       23.162       29.0997
Te         10.7672       6.90873       14.6158
Te         29.7432       9.97015       11.6287
Te         9.01722       26.0361       13.4369
Te         30.9068       27.2096       13.508
Te         9.79501       5.92756       35.3341
Te         33.3232       4.04189       34.3193
Te         9.40179       29.0659       31.1813
Te         31.649       26.6208       36.3803
Te         6.1515       7.20578       20.8034
Te         28.1237       11.087       19.853
Te         8.81149       28.5835       16.2531
Te         27.8045       31.1903       17.8858
Te         10.3604       9.04372       37.5705
Te         32.6807       11.0747       40.2625
Te         9.95256       31.2213       1.82926
Te         28.7843       30.7056       0.849723
Te         11.7983       6.12294       8.96273
Te         31.212       10.628       7.97671
Te         9.97211       31.1096       11.5738
Te         31.9829       29.1593       7.19852
Te         10.981       4.78527       30.0019
Te         32.3704       8.09412       27.612
Te         8.76622       27.2428       26.2712
Te         34.3881       29.2905       27.083
Te         14.6543       12.0518       16.2661
Te         33.7117       18.2838       17.0381
Te         11.2161       37.5238       14.8652
Te         31.7158       37.7421       14.313
Te         9.29028       14.2095       36.0242
Te         32.7206       11.8492       34.7975
Te         13.0712       39.3966       34.8346
Te         32.8301       35.4794       37.902
Te         4.55778       14.9829       4.35157
Te         27.8231       12.1388       3.18357
Te         5.81941       36.1365       7.23757
Te         21.0002       31.7237       3.69582
Te         5.47435       11.2804       26.2886
Te         27.1593       14.2255       25.7825
Te         4.73289       32.7198       25.4415
Te         25.1256       31.1373       28.984
Te         6.41433       14.9421       16.726
Te         28.0472       13.3101       12.9154
Te         4.55989       34.7167       14.3343
Te         31.2668       31.8631       11.6957
Te         4.89012       13.1129       34.9739
Te         28.6437       14.4015       34.8884
Te         6.80265       34.2012       34.9447
Te         32.5141       33.2502       34.1567
Te         10.519       20.3963       41.1264
Te         34.2173       19.4495       2.56635
Te         12.3524       41.2366       2.87903
Te         30.9745       0.234775       1.78219
Te         12.2069       22.0189       21.9899
Te         33.5089       21.1302       19.8324
Te         10.5445       34.7918       20.7958
Te         30.5829       40.975       21.5328
Te         15.3916       1.86536       9.03185
Te         37.1643       4.5857       10.5771
Te         16.7205       21.1979       10.0667
Te         36.4138       25.1323       8.73536
Te         21.2022       40.7799       30.1583
Te         37.6197       0.567217       28.5234
Te         15.3418       18.6494       29.9821
Te         37.0038       22.6735       30.8682
Te         19.7129       6.09499       16.0744
Te         38.8743       4.99834       13.8895
Te         18.17       23.4824       14.6056
Te         38.0404       25.3922       14.377
Te         12.9271       5.22862       33.0405
Te         36.75       3.64055       36.7549
Te         15.6829       22.3018       34.9544
Te         37.3719       26.6676       40.2556
Te         17.8231       5.66922       20.5986
Te         36.7625       6.13411       18.8403
Te         18.1515       24.7139       20.5811
Te         2.7177       24.1401       14.9055
Te         14.02       5.96676       41.3124
Te         38.5875       9.69848       40.0596
Te         17.2777       26.8237       38.7395
Te         2.75946       26.1143       0.585929
Te         18.2644       6.58031       6.9792
Te         39.4241       9.05984       7.36528
Te         15.3486       24.8838       4.24015
Te         39.5979       32.801       3.58135
Te         20.078       5.54575       27.0987
Te         38.54       10.8616       24.708
Te         16.7678       24.5034       28.4718
Te         40.6346       27.3116       24.2256
Te         4.37205       10.0783       14.8695
Te         21.4464       10.7658       15.7748
Te         0.605675       33.4619       16.8692
Te         20.0427       32.1285       17.7869
Te         40.0946       10.4194       32.9171
Te         19.7429       10.5309       31.6883
Te         1.86682       32.6751       39.2073
Te         17.8847       29.9426       36.7001
Te         18.8459       14.1513       6.28007
Te         1.18462       14.8267       6.85492
Te         18.6605       34.5167       4.34261
Te         40.9512       36.3251       2.34396
Te         21.09       12.0935       27.4738
Te         41.0347       12.9637       22.9477
Te         19.9983       31.0097       26.1374
Te         0.441673       32.9543       24.5554
Te         11.522       10.3426       15.0126
Te         34.0537       6.36661       11.5776
Te         15.6198       30.2321       12.8185
Te         34.8911       29.8425       12.8714
Te         13.8551       7.76216       30.7058
Te         37.2249       9.92431       28.8341
Te         13.1587       31.1676       30.4717
Te         34.4682       29.2504       35.4259
Te         17.3426       17.0925       19.6252
Te         36.9327       18.5728       19.711
Te         15.2001       35.7834       21.8853
Te         33.5156       37.0519       20.4611
Te         14.3347       19.2324       40.666
Te         38.4095       21.6462       38.0092
Te         17.048       1.04337       0.0407869
Te         36.8271       2.4267       40.2882
Te         12.4628       16.118       4.91453
Te         34.2571       16.0288       3.84749
Te         14.5693       35.5206       8.07173
Te         34.5542       35.8369       6.05831
Te         12.7712       14.891       24.0335
Te         34.4872       19.0138       26.4777
Te         14.6379       33.7478       25.1038
Te         36.7276       37.7616       26.815
Te         15.0145       10.4378       11.2991
Te         36.3514       13.7629       12.2245
Te         18.8026       36.2264       12.372
Te         40.5011       37.0211       11.552
Te         15.512       9.73215       35.3069
Te         0.245182       15.2335       30.491
Te         15.6529       36.8822       34.5061
Te         35.745       35.968       35.0242
Te         8.56824       0.445441       10.2412
Te         25.4681       2.69664       9.98513
Te         4.73456       19.1658       11.0828
Te         29.0757       22.2856       8.78832
Te         10.2312       0.210604       27.7599
Te         29.2462       37.1777       29.2681
Te         8.57233       20.2325       32.6804
Te         29.1893       22.3176       31.5545
Te         3.38274       1.64519       18.6638
Te         23.0148       40.8868       21.4874
Te         2.84578       20.4555       24.5613
Te         24.1403       20.553       21.3552
Te         4.16595       3.61585       2.50958
Te         22.4201       5.79582       0.479057
Te         3.07078       20.7736       2.67022
Te         27.1584       20.3808       39.2404
Te         4.75237       16.7957       7.6443
Te         26.3471       14.7829       5.68013
Te         1.22723       38.988       4.37642
Te         27.8672       36.1882       8.72602
Te         4.92136       13.3576       31.2556
Te         28.3942       14.0615       30.8969
Te         3.90815       33.7535       29.7741
Te         28.5002       33.8083       33.0052
Te         3.46224       9.82362       19.9264
Te         24.9765       11.4502       17.8024
Te         4.00439       32.6475       17.8451
Te         28.1134       34.1831       12.0585
Te         5.34443       11.9638       38.1208
Te         28.5657       7.53196       36.0781
Te         6.31147       32.165       41.1285
Te         21.6203       31.373       37.0588
Te         6.17191       17.5618       2.43743
Te         27.987       14.4105       0.350818
Te         7.99111       37.9503       0.852275
Te         25.0152       35.1885       3.84991
Te         4.65406       14.9437       25.3117
Te         23.9175       16.8082       18.6184
Te         4.7543       36.0324       19.5937
Te         24.7856       33.1986       17.4438
Te         3.8898       15.7562       13.2351
Te         26.3672       16.3464       10.9515
Te         2.67796       35.9286       9.24101
Te         27.0601       39.7088       11.8949
Te         3.08914       17.4739       35.6955
Te         28.8686       18.2553       33.3917
Te         3.83343       39.3362       34.6574
Te         28.3354       36.7266       34.9043
Te         9.38244       19.4177       20.6678
Te         26.9822       17.4274       20.5324
Te         9.0959       39.52       20.1498
Te         29.9843       37.4219       20.6878
Te         7.52001       18.3404       38.6225
Te         25.7369       18.7892       1.2632
Te         10.1831       38.4756       3.53454
Te         30.7726       37.6226       0.97194
Te         5.60467       19.8378       5.57438
Te         26.8838       20.3435       5.83231
Te         6.22464       2.99267       5.55506
Te         24.7219       39.2513       6.20869
Te         7.22063       22.2336       29.7221
Te         27.7147       23.8847       28.8667
Te         4.21326       39.8076       25.2115
Te         25.9639       38.6467       26.1682
Te         41.5724       19.4677       1.68954
Te         22.2696       19.3532       41.2822
Te         1.71832       0.930052       3.33109
Te         24.2215       39.3928       41.461
Te         0.937889       16.1379       23.7776
Te         23.0139       18.0903       24.4758
Te         5.47383       39.2039       21.8486
Te         21.162       38.2388       18.949
Te         12.8131       1.98889       40.7962
Te         32.6912       3.29345       0.993762
Te         13.9492       24.21       0.98462
Te         31.5636       23.914       40.8788
Te         13.5782       2.00716       23.0217
Te         32.6692       3.76198       21.6473
Te         12.3517       25.3171       20.2903
Te         37.8663       25.37       19.428
Te         10.1226       4.17782       11.9254
Te         29.5888       6.27026       10.8599
Te         8.67606       24.2351       10.0556
Te         32.6785       22.7404       10.6508
Te         7.09734       41.4927       34.7478
Te         30.006       5.429       29.301
Te         13.1389       26.1493       34.6386
Te         32.2967       26.7381       32.0549
Te         9.78803       5.55779       21.5744
Te         29.9577       4.91721       19.4206
Te         10.8008       25.6202       16.9223
Te         33.7182       29.6289       18.7646
Te         10.6091       4.36023       39.3369
Te         28.8416       3.25726       0.424892
Te         10.0608       29.1475       40.6137
Te         30.2761       29.0699       39.1344
Te         14.6498       4.07305       12.8267
Te         31.595       2.28849       11.2241
Te         10.9914       23.0689       13.4601
Te         35.4624       25.9804       12.5257
Te         9.83138       2.83033       32.5912
Te         36.1603       1.90781       33.6545
Te         12.6173       20.8841       33.1333
Te         35.992       25.1577       36.3961
Te         7.15214       11.6121       18.1192
Te         29.9708       15.4519       19.4387
Te         7.58965       32.7258       15.3207
Te         30.7708       30.152       15.5423
Te         11.8665       9.30612       33.55
Te         29.5829       10.9932       36.7299
Te         10.5317       35.4305       36.78
Te         25.5108       30.1515       36.8691
Te         11.8547       14.5671       11.7051
Te         37.3919       15.4376       6.73712
Te         14.9011       37.5808       11.5255
Te         37.9555       36.1043       8.70107
Te         15.7772       14.7443       28.5659
Te         38.0149       15.5938       30.5266
Te         15.218       29.9372       27.0207
Te         39.7006       32.2025       30.8218
Te         9.06458       14.3874       22.2224
Te         31.5071       18.94       21.9651
Te         10.5763       32.2745       17.7555
Te         31.6778       34.1485       19.2523
Te         9.92924       12.765       40.7813
Te         35.1803       13.9467       41.3326
Te         10.8214       34.6386       2.93202
Te         33.0292       31.5284       38.4692
Te         7.59865       18.9221       9.15308
Te         28.5469       17.1344       8.48533
Te         7.04554       37.8103       10.7979
Te         30.9957       37.6951       9.29063
Te         7.42603       16.6304       31.4574
Te         31.4095       18.7589       30.2789
Te         5.18632       36.497       31.5846
Te         32.2268       35.7103       31.415
Te         14.0435       6.87522       23.8243
Te         33.706       6.55911       20.1566
Te         14.7987       27.9615       19.8161
Te         36.6417       28.5555       16.5106
Te         11.7073       10.8963       3.25519
Te         35.6556       6.38658       39.8352
Te         12.5748       27.3952       38.7381
Te         36.0815       30.5394       41.1359
Te         14.7717       8.12343       19.4902
Te         38.9316       10.9806       12.8284
Te         19.6394       30.1712       12.5861
Te         36.125       32.2613       16.6404
Te         20.0849       10.6264       36.6287
Te         36.4344       10.1734       34.0534
Te         17.1792       34.2082       37.7737
Te         37.4278       31.5935       37.8613
Te         13.4213       7.77471       12.1468
Te         33.3187       11.5032       10.5781
Te         18.807       33.1468       10.6747
Te         37.7484       30.7142       9.13643
Te         16.3743       12.4525       33.1833
Te         38.5093       13.5625       33.4732
Te         15.4727       34.0316       30.7824
Te         37.1204       29.0312       30.097
Te         14.5061       14.2061       7.37574
Te         39.58       12.5652       6.16946
Te         16.5794       32.4467       6.66102
Te         37.7998       36.089       3.98337
Te         16.7281       11.4015       29.3547
Te         35.9717       15.6967       25.7488
Te         14.7891       26.6802       26.0943
Te         36.7875       32.4112       27.2311
Te         14.5376       10.8437       22.9867
Te         32.3034       11.5359       20.9492
Te         17.1168       28.5812       15.5331
Te         35.9151       32.6434       20.3473
Te         17.0014       13.4195       40.6953
Te         35.5844       9.72487       0.109077
Te         12.6086       31.8405       38.5062
Te         34.6602       34.3567       40.6942
Te         14.9916       13.2253       3.43989
Te         39.8786       12.8357       1.61278
Te         16.2432       30.9994       39.8766
Te         34.4078       37.4535       2.56703
Te         16.731       13.7568       22.3139
Te         35.0303       16.4164       21.3923
Te         18.3461       33.2533       23.6051
Te         37.1664       32.2196       23.5551
Te         17.4805       19.8556       13.7596
Te         37.3997       19.96       13.6564
Te         16.3513       38.2833       14.5666
Te         38.5902       0.555387       13.1265
Te         18.4131       13.7476       36.0295
Te         41.5463       20.7891       34.6091
Te         19.7037       0.668701       34.0343
Te         35.4969       39.9153       34.6909
Te         18.8844       22.0356       17.7717
Te         39.8454       18.9723       15.8736
Te         19.6991       0.501877       14.8358
Te         2.16946       3.41787       15.2109
Te         23.2714       18.8638       33.8751
Te         41.1997       21.016       40.0571
Te         20.7082       39.3753       36.61
Te         40.2228       38.2303       33.4837
Te         20.7706       41.4496       4.75193
Te         39.7109       1.14886       4.59603
Te         20.7742       18.9313       3.00953
Te         41.2173       21.2875       5.38545
Te         20.4519       39.8028       24.0631
Te         0.593295       40.3954       23.6044
Te         18.3734       17.169       23.1553
Te         0.331705       19.8052       27.1893
Te         40.7859       19.7409       10.8687
Te         20.3407       20.5504       10.5613
Te         0.694144       0.722783       12.378
Te         21.3067       0.0325403       11.1884
Te         2.97216       22.2617       33.1748
Te         20.7426       20.7182       30.0314
Te         3.08609       38.8231       29.6319
Te         23.5676       38.4541       32.871
Te         1.89744       9.91494       11.9996
Te         22.3794       8.02705       13.3108
Te         0.0513751       25.2574       12.0877
Te         21.7638       23.8712       12.369
Te         40.1558       4.07646       33.6418
Te         20.4716       7.77101       34.0133
Te         41.23       29.5126       37.1836
Te         17.7192       22.4056       31.4881
Te         1.06124       9.04591       37.7518
Te         21.981       8.06889       39.637
Te         2.61879       34.167       0.938489
Te         19.0068       34.4705       41.149
Te         40.0183       11.3793       19.6766
Te         19.0444       8.86015       19.6739
Te         1.05216       36.4586       20.4863
Te         24.6824       30.2583       20.317
Te         4.50594       7.7787       6.29027
Te         26.0212       10.7949       6.32996
Te         7.3523       31.5946       8.58903
Te         25.2088       27.2328       8.5397
Te         4.75107       4.9917       28.2101
Te         25.6152       9.75895       26.8456
Te         5.24873       25.794       27.5202
Te         22.2527       28.4999       28.8098
Te         6.58072       12.451       12.7443
Te         25.7765       10.3745       13.2703
Te         2.37389       31.5012       13.9996
Te         26.8339       31.1983       13.3955
Te         2.67369       10.4533       33.8069
Te         25.6055       7.63124       33.1765
Te         4.35684       30.8367       37.6036
Te         22.4335       27.6315       36.5979
Te         23.7746       9.4063       9.80533
Te         0.61325       13.4503       13.0983
Te         22.7297       32.1803       14.3756
Te         3.13738       28.2006       12.8731
Te         22.8968       9.25869       29.8267
Te         3.70047       6.61022       31.6552
Te         20.1105       34.364       35.3732
Te         41.4621       32.6657       35.6431
Te         1.58944       18.9758       13.683
Te         22.7916       16.4767       11.5419
Te         2.25412       38.8128       12.8549
Te         20.218       38.4474       14.9266
Te         3.95312       20.4521       37.7358
Te         24.9896       15.9599       35.9408
Te         1.24528       40.0187       37.5096
Te         25.6294       38.5181       36.6833
Te         11.3328       19.3746       6.90373
Te         38.7646       21.2982       8.1004
Te         14.5803       40.654       6.71775
Te         36.2322       2.37255       2.60397
Te         16.1269       20.9305       23.3039
Te         36.0953       22.2349       26.0052
Te         17.6481       38.1295       28.0465
Te         38.8165       40.1639       24.4935
Te         40.9711       17.7865       7.73232
Te         23.1203       15.4545       7.81648
Te         39.4866       39.614       6.6033
Te         17.5802       37.2511       7.80877
Te         40.0027       16.1823       27.3205
Te         23.5419       15.0433       27.2615
Te         1.92779       37.4836       26.898
Te         23.1267       34.4662       31.2421
Te         21.212       4.13121       18.6303
Te         41.0721       5.12897       16.952
Te         22.3835       23.2161       16.4776
Te         40.8272       22.0112       14.1603
Te         22.302       5.60078       37.0291
Te         0.672168       5.53897       38.5997
Te         19.3731       24.6797       35.989
Te         41.2277       24.3359       36.4037
Te         16.6332       1.75182       19.4157
Te         34.2373       3.09867       17.9356
Te         16.5035       25.3867       17.6038
Te         41.5891       25.7325       17.6486
Te         16.0274       2.55924       38.7444
Te         39.8264       6.11801       0.10492
Te         15.6841       22.3989       38.7631
Te         36.023       26.2967       2.89094
Te         6.26731       7.16113       13.5459
Te         25.9885       7.02351       12.2392
Te         5.49258       24.7498       12.6979
Te         24.9962       26.171       13.0421
Te         3.69981       7.75528       36.1862
Te         25.2606       4.68616       35.2686
Te         3.27809       28.9385       32.8844
Te         21.7195       22.337       34.2859
Te         6.41393       11.2994       4.56805
Te         28.6185       11.2519       40.3579
Te         13.7326       30.0445       1.69957
Te         24.4695       31.6392       3.46001
Te         2.89185       4.82473       20.7993
Te         26.9326       10.914       23.5128
Te         8.02479       29.2086       22.9125
Te         27.5726       31.0443       23.1209