12960
 Atoms. Timestep: 200000
Te         60.7782       18.129       60.6369
Te         21.6375       19.8685       2.99673
Te         36.3871       16.0132       5.78162
Te         0.383966       40.8969       1.29217
Te         22.0695       41.5052       2.87057
Te         43.2367       36.3843       3.2318
Te         1.80529       2.41959       0.879043
Te         19.7327       3.35189       61.3275
Te         38.4453       2.00953       2.48067
Te         3.15838       20.5565       17.2195
Te         16.483       19.2924       21.9297
Te         40.4074       26.77       26.6547
Te         2.63023       41.8347       16.4662
Te         25.4022       42.0478       19.8465
Te         44.6037       41.1137       17.9996
Te         1.58426       0.277627       23.2679
Te         25.053       57.2       24.9452
Te         44.9208       60.4921       22.302
Te         62.3203       21.3559       38.3064
Te         20.7907       18.2167       41.9331
Te         44.6231       16.3071       40.053
Te         62.0816       37.141       41.5931
Te         16.2282       40.4673       44.4406
Te         38.0768       38.9803       41.2756
Te         54.6483       3.63404       40.0466
Te         21.6866       1.39944       39.7113
Te         44.7087       0.757817       43.0655
Te         15.9495       15.1285       10.6512
Te         36.2531       18.9626       10.7992
Te         53.9014       11.9286       6.64592
Te         19.6041       35.729       12.002
Te         43.5405       42.3793       11.0279
Te         55.4414       37.8452       11.3615
Te         14.8094       55.5757       8.23114
Te         41.2454       0.160651       14.0427
Te         55.7265       59.7718       11.6805
Te         19.6875       21.9058       29.0054
Te         34.6785       15.7567       27.4456
Te         57.5538       19.8017       26.366
Te         14.2881       37.6797       33.8077
Te         38.6899       38.0292       37.4807
Te         59.0774       40.181       32.4651
Te         16.3249       57.8135       28.9882
Te         35.8906       57.1462       32.3821
Te         56.2661       2.04268       32.1501
Te         17.4385       22.2768       51.1914
Te         37.6312       16.4333       52.4782
Te         59.2787       19.0757       53.7615
Te         14.1186       39.1685       51.5192
Te         35.6005       34.9054       52.7293
Te         56.5782       40.016       49.9281
Te         14.482       60.2565       50.7509
Te         34.8578       60.9281       51.9246
Te         60.5908       57.712       45.1018
Te         4.96526       2.18076       17.5784
Te         21.6271       2.63504       18.2636
Te         47.6356       3.60182       20.1427
Te         11.4169       20.9606       17.0738
Te         27.2346       20.4276       17.3456
Te         44.2783       21.4881       18.6123
Te         7.72638       47.7995       14.7456
Te         24.218       47.0109       20.1263
Te         49.5557       46.3507       20.6039
Te         3.99425       2.59549       37.0968
Te         26.9843       2.78385       33.3828
Te         43.0986       1.58081       37.5363
Te         4.26014       24.3876       43.2216
Te         27.6103       23.4594       39.2389
Te         44.6241       26.4737       34.9114
Te         5.05301       43.8999       35.3883
Te         19.1543       44.7975       38.4521
Te         42.2029       41.4472       34.4582
Te         2.817       7.54389       57.083
Te         27.7469       3.83538       53.1452
Te         48.1954       62.197       58.2168
Te         2.32547       22.6371       61.3118
Te         27.4562       28.6555       56.3525
Te         43.8287       20.2867       55.973
Te         4.36126       45.87       56.9073
Te         30.1571       48.0724       53.5617
Te         50.3483       49.4737       54.9165
Te         17.5273       4.39141       1.30719
Te         40.2531       13.1473       59.581
Te         59.0565       3.85436       58.9502
Te         21.6149       23.0015       60.407
Te         39.8814       30.7229       3.29017
Te         61.4513       30.4506       60.8803
Te         19.2342       47.7403       1.64436
Te         41.3831       47.4831       2.83443
Te         58.2763       51.2739       2.09105
Te         24.6631       5.96536       23.3827
Te         34.0381       6.60435       24.7712
Te         62.3964       11.2897       22.1865
Te         22.4794       23.5095       22.8994
Te         44.1912       27.0045       27.6175
Te         54.7713       32.4266       13.177
Te         19.4819       41.8994       25.0751
Te         41.7028       47.7763       20.3303
Te         3.58746       45.9641       19.8174
Te         18.2372       7.48292       45.3726
Te         41.1351       61.8389       44.1777
Te         60.9103       9.13807       46.3504
Te         19.0851       23.7296       44.2278
Te         36.1288       23.014       45.9451
Te         61.3968       24.102       44.1466
Te         21.2222       48.661       45.8362
Te         44.1288       47.4067       38.9185
Te         62.0061       42.9566       39.866
Te         3.99575       22.5701       6.81489
Te         21.7658       18.8062       12.6756
Te         44.0698       20.285       12.7482
Te         0.448054       42.2008       4.93338
Te         18.4934       42.7931       10.5571
Te         46.8213       40.5359       11.7197
Te         1.88718       4.05969       6.99635
Te         22.103       3.1685       11.2542
Te         42.256       54.8973       10.1637
Te         0.972451       22.9773       28.3278
Te         21.4386       20.6233       25.7235
Te         39.6161       18.7146       26.4033
Te         4.18783       42.0779       22.4541
Te         24.9095       33.9404       25.7886
Te         45.92       41.0646       26.2101
Te         1.92731       4.83342       29.2866
Te         22.9198       54.3443       30.2006
Te         43.0464       62.0267       25.3678
Te         2.52542       18.5712       47.45
Te         22.232       17.2701       57.0817
Te         43.0737       16.5221       48.4583
Te         3.21304       35.3781       46.5356
Te         19.6897       33.6899       51.4243
Te         41.5945       41.5961       45.3717
Te         1.35026       58.9828       46.0866
Te         15.2564       1.05953       48.1918
Te         44.3528       59.963       55.1606
Te         5.37344       60.559       9.61386
Te         30.0017       3.70565       12.8312
Te         54.3654       62.0436       15.0923
Te         5.76296       25.4902       15.7386
Te         23.0436       19.4985       17.9302
Te         47.8446       19.622       7.67415
Te         4.57149       48.0107       13.2564
Te         25.7937       41.2748       10.4159
Te         51.9404       38.778       14.8303
Te         2.04998       4.64155       34.4916
Te         30.0535       62.225       31.4559
Te         45.378       0.994752       34.5053
Te         10.6568       20.0376       31.5667
Te         22.4323       21.6141       35.7154
Te         51.3795       22.0301       30.4809
Te         5.63056       44.5455       31.2152
Te         24.1446       43.7126       35.1546
Te         48.2802       36.4393       34.4681
Te         4.18914       2.26502       53.6407
Te         25.6081       6.77257       50.6343
Te         43.9105       3.00182       52.4847
Te         6.0158       21.5749       50.2251
Te         28.4777       27.2847       53.3203
Te         47.1469       22.9453       51.8339
Te         5.36443       42.6125       54.1222
Te         26.626       46.2963       53.5458
Te         45.7635       43.0438       55.7763
Te         5.18062       11.6166       57.4956
Te         24.3769       11.2211       3.23275
Te         45.148       11.1079       61.5005
Te         5.29598       30.4978       60.5628
Te         27.078       34.795       60.942
Te         43.5648       33.5467       7.34033
Te         4.96084       55.6222       60.7819
Te         24.1877       55.4127       60.5094
Te         50.7774       53.4787       61.6462
Te         3.69321       12.363       21.1664
Te         26.0017       18.1452       20.2695
Te         48.8754       9.05332       24.6297
Te         7.41423       33.1968       21.3162
Te         26.6732       33.5039       19.0042
Te         49.805       31.3931       21.9205
Te         4.79058       58.125       18.074
Te         26.4587       48.2458       24.902
Te         46.5605       58.7556       24.9948
Te         62.1257       5.25284       44.5173
Te         25.58       9.02784       35.8792
Te         45.6094       8.60624       42.8624
Te         1.56555       34.3043       40.4663
Te         19.0072       32.0998       41.4303
Te         48.1724       34.5609       40.8045
Te         1.02065       52.0151       38.4604
Te         23.902       47.0701       43.1743
Te         48.1964       55.5604       38.8457
Te         18.8925       11.4005       16.2919
Te         41.5032       15.5214       14.3198
Te         1.38635       12.9655       16.811
Te         18.5059       34.3287       15.281
Te         41.9994       36.7209       14.7657
Te         1.68647       36.0358       13.9008
Te         14.5191       55.0066       17.7186
Te         43.4059       51.8432       16.234
Te         4.46056       51.9034       21.8504
Te         19.5469       11.1131       35.8384
Te         40.4416       12.9718       37.9553
Te         62.0138       14.9287       39.3394
Te         17.3109       32.3408       36.0026
Te         35.7745       36.4559       36.3993
Te         5.00551       32.0178       34.5671
Te         21.9811       56.1991       37.1776
Te         47.3235       50.0486       38.0247
Te         0.404449       58.3629       27.3779
Te         19.3945       14.8605       60.2007
Te         40.8399       17.6446       55.5281
Te         0.125578       7.75392       51.1587
Te         21.6082       32.9217       58.1371
Te         37.5986       30.6988       60.9152
Te         61.7718       32.677       54.282
Te         21.0277       54.9978       56.3871
Te         40.5748       53.1727       58.2188
Te         0.130281       60.6628       53.62
Te         60.0058       21.667       2.19969
Te         24.0806       14.8776       4.88392
Te         44.1986       13.3935       4.17635
Te         2.77049       39.9794       7.90116
Te         27.84       35.2802       4.2095
Te         44.563       40.3956       4.15785
Te         3.22256       55.9629       4.50239
Te         26.1533       0.616127       9.38909
Te         41.8613       61.2183       7.88319
Te         7.01106       18.4518       25.3642
Te         22.0866       16.5744       20.8771
Te         42.7735       20.7846       27.4396
Te         1.30675       40.6679       19.7694
Te         31.3662       37.5961       23.5144
Te         46.582       36.3224       23.5432
Te         5.12796       56.3565       22.0175
Te         27.8997       53.1148       25.3859
Te         48.1647       62.0297       26.5208
Te         5.79657       17.1566       47.0298
Te         26.0355       14.6486       48.2529
Te         46.1552       18.0061       47.1508
Te         7.02974       35.1284       46.4852
Te         20.5574       35.1783       48.2833
Te         48.4981       37.8747       38.0837
Te         4.75679       58.6287       44.6844
Te         23.0644       58.9212       44.6073
Te         48.1651       59.9898       48.6447
Te         7.41637       0.352363       15.1879
Te         27.4352       59.7179       16.8623
Te         48.098       5.43115       16.1605
Te         4.82309       13.693       14.6113
Te         28.5515       16.5619       17.2583
Te         51.7307       21.7375       11.0496
Te         5.80253       44.314       13.8361
Te         28.088       44.799       17.9932
Te         49.871       35.4709       7.68102
Te         6.39599       61.8069       34.3227
Te         34.7104       59.843       35.1509
Te         43.5012       5.16383       37.6912
Te         8.07943       16.2943       32.964
Te         29.2938       16.7539       36.6179
Te         46.7517       17.6771       34.9332
Te         7.84352       41.0578       36.3399
Te         27.9       39.5266       37.0351
Te         54.5412       43.2741       36.052
Te         6.47714       61.0558       55.586
Te         24.0434       1.34226       54.0584
Te         43.4171       2.69231       58.47
Te         5.04956       18.1458       51.1085
Te         30.9752       18.9703       54.9459
Te         46.3834       23.8789       55.9124
Te         10.7632       37.0307       57.9192
Te         24.9339       39.5936       57.4202
Te         48.5998       43.263       58.6595
Te         4.31472       62.376       13.0626
Te         24.5194       0.543539       15.4365
Te         45.6644       7.85146       16.0281
Te         1.92442       24.1776       18.5957
Te         19.3477       17.8008       18.9858
Te         47.3812       14.6531       9.64524
Te         61.5407       46.2307       6.39281
Te         20.3143       45.8044       14.1586
Te         50.0354       39.3775       10.3933
Te         4.89505       7.72119       34.6598
Te         22.691       7.32339       37.1995
Te         41.6618       59.3162       36.0301
Te         5.99751       23.4327       33.864
Te         19.8481       24.0831       34.7182
Te         39.73       22.8543       35.7292
Te         0.126676       40.8706       31.0978
Te         27.0412       43.7566       37.3422
Te         44.2467       42.9932       29.9797
Te         0.668895       1.92667       59.7806
Te         23.1398       4.08999       50.5987
Te         46.2965       59.2573       59.0065
Te         7.57361       19.9401       59.2098
Te         28.6298       23.2686       57.0462
Te         45.5245       16.8529       51.2317
Te         2.24762       45.2131       52.7986
Te         21.2544       43.0253       53.7054
Te         46.6106       46.4862       56.4992
Te         5.75661       4.21653       5.42943
Te         25.8199       7.05858       6.3734
Te         47.2835       10.5333       2.43631
Te         61.4526       28.5222       7.82644
Te         20.8737       25.5982       8.97181
Te         40.524       25.7488       3.16662
Te         2.92189       51.905       0.872211
Te         22.1836       49.8783       1.50081
Te         43.1175       52.7947       3.01984
Te         61.4134       7.13712       24.5405
Te         28.9891       4.39923       24.0929
Te         43.0751       6.66707       22.0876
Te         2.21238       26.9243       21.9017
Te         19.0925       25.7167       22.5043
Te         44.5036       27.8454       23.9832
Te         2.70584       48.9497       22.8167
Te         22.4089       49.3498       29.2948
Te         42.9255       51.5516       23.5769
Te         3.01277       62.3579       43.786
Te         25.6704       9.86243       44.5575
Te         43.3301       2.77       45.8754
Te         60.6837       27.6355       46.0607
Te         17.7718       28.3344       43.8707
Te         40.3408       26.25       41.3007
Te         4.31707       44.3842       42.5582
Te         19.1981       45.5538       43.6982
Te         46.5062       45.3499       45.7228
Te         61.4918       7.56975       7.5654
Te         29.556       2.27001       8.94087
Te         49.9869       1.00063       9.13139
Te         6.94586       23.6121       9.11169
Te         24.2213       24.0699       12.1441
Te         47.6145       23.2912       7.54247
Te         10.2052       49.7821       10.6024
Te         24.4988       44.687       8.36971
Te         53.1551       45.339       14.1839
Te         4.77659       3.7023       27.2092
Te         24.791       3.78829       26.2723
Te         50.4207       5.00176       29.1042
Te         2.80365       26.5359       30.2835
Te         23.1405       17.4357       30.3338
Te         47.8548       26.9464       28.5088
Te         8.46371       48.382       24.2421
Te         25.6847       46.9448       33.6736
Te         44.4738       46.5932       28.9073
Te         5.45815       3.95435       50.5915
Te         24.5956       4.62264       46.7706
Te         47.6272       7.6819       51.4603
Te         10.8881       21.5356       47.7441
Te         24.3364       27.7508       53.1653
Te         48.6135       29.8795       53.416
Te         10.169       47.833       48.3353
Te         28.6408       52.1586       51.5728
Te         50.7902       44.5407       50.9497
Te         8.84921       3.61057       10.4212
Te         33.6589       2.42299       15.42
Te         53.6425       60.0443       22.491
Te         8.69004       19.2451       15.3728
Te         29.3424       21.6064       10.586
Te         53.2027       22.1774       16.3138
Te         11.3609       48.2177       13.9341
Te         28.718       48.3741       16.5683
Te         51.9466       43.1773       17.6953
Te         7.87495       6.27214       36.5756
Te         25.3424       3.29817       30.0374
Te         48.0323       9.93578       35.9418
Te         4.8238       22.827       39.7257
Te         30.5949       24.6105       36.3471
Te         45.5178       28.8987       31.5483
Te         10.4843       43.9291       37.7875
Te         24.5514       41.8564       39.2893
Te         52.0352       40.2201       33.8063
Te         3.03441       2.90543       56.9182
Te         26.7921       1.46846       50.635
Te         56.2885       62.0637       1.66246
Te         14.5962       21.4296       59.7081
Te         32.631       23.3656       58.5641
Te         47.3769       28.5137       59.9481
Te         7.62533       45.6726       54.426
Te         34.1925       44.9993       55.2884
Te         52.8145       44.0997       59.412
Te         18.4558       6.06859       5.63241
Te         44.4641       9.23282       4.39623
Te         61.7783       12.5079       0.966062
Te         17.935       21.4863       61.9048
Te         43.2764       30.1332       5.62421
Te         0.898284       34.3386       2.50669
Te         22.7452       54.6703       1.69421
Te         36.8543       50.4676       3.89651
Te         53.5928       48.5561       6.365
Te         20.8992       11.2034       26.7873
Te         39.2134       7.44921       22.5307
Te         0.725985       11.2122       26.0255
Te         23.7869       31.1257       23.7983
Te         41.4998       34.9658       26.2252
Te         0.701493       30.5103       24.1254
Te         18.278       45.6157       25.3018
Te         40.6323       51.9726       26.7681
Te         59.6494       48.7539       22.4391
Te         25.0499       13.7227       43.8263
Te         39.9777       3.20053       44.2358
Te         61.1107       12.8322       45.734
Te         15.3518       27.936       46.9653
Te         44.1887       35.9243       46.9872
Te         55.7677       29.1977       51.0684
Te         17.6459       53.7959       42.7804
Te         42.6774       51.8352       43.1633
Te         60.4001       47.6685       40.2802
Te         60.1213       1.49982       7.13239
Te         19.5897       4.19407       8.43867
Te         47.5239       4.81016       6.04616
Te         4.24442       21.9693       3.18108
Te         22.8664       21.4399       9.43706
Te         43.0219       23.71       5.56705
Te         2.37818       46.8157       5.11715
Te         23.317       47.6356       5.16879
Te         42.4084       44.9963       61.4662
Te         0.26475       3.66764       25.9004
Te         22.6271       59.9019       26.6189
Te         42.2878       7.15285       25.7265
Te         4.42768       23.7099       27.3586
Te         22.8023       16.9094       25.7246
Te         45.092       23.8502       28.9039
Te         2.94711       48.4544       26.4299
Te         22.9348       42.4343       28.7885
Te         44.6924       40.1127       21.9194
Te         5.43572       3.61589       46.7344
Te         17.1032       7.427       49.0452
Te         42.5628       56.8209       42.5436
Te         60.7194       25.3654       48.8862
Te         20.9855       24.7577       51.3917
Te         39.9537       24.0304       47.5519
Te         0.555921       34.6162       50.8917
Te         21.4009       43.3963       48.1459
Te         39.8557       41.5503       49.3407
Te         1.92325       10.3774       6.53451
Te         26.2721       8.10534       9.60796
Te         43.0715       8.71284       13.3692
Te         1.54337       29.5237       10.5316
Te         26.2111       29.328       10.8302
Te         45.3854       28.5535       9.00054
Te         7.8427       54.1173       11.9678
Te         29.6477       55.9523       7.42287
Te         47.6508       53.3915       12.0156
Te         5.5675       10.8094       28.3963
Te         22.7136       3.51137       35.2976
Te         48.9494       14.9558       34.3776
Te         1.17332       33.6464       33.3031
Te         22.0441       27.6495       27.269
Te         50.9424       32.314       25.1733
Te         61.0474       55.3072       26.7436
Te         28.7407       50.0348       30.6532
Te         45.4022       53.0362       28.092
Te         8.35175       7.08036       47.5246
Te         22.6734       13.9934       55.6561
Te         42.8931       10.5349       53.5004
Te         8.05521       28.6539       51.4343
Te         22.297       31.0809       49.8477
Te         37.7307       28.891       48.7584
Te         4.40993       54.2713       43.5504
Te         22.8088       51.3673       57.0998
Te         47.2736       45.1811       52.9966
Te         7.02204       18.5322       18.6988
Te         24.4755       15.46       17.885
Te         46.4761       19.8708       15.6883
Te         9.37665       43.6198       14.9646
Te         28.471       42.3711       21.2775
Te         49.3554       36.4268       13.025
Te         7.07799       61.1652       18.2447
Te         19.0049       61.5588       19.215
Te         46.0187       1.98595       15.7025
Te         5.08789       19.7369       36.1601
Te         26.3158       12.3858       37.9263
Te         43.6747       18.7309       37.0885
Te         4.09906       37.7685       40.7801
Te         17.7463       41.0064       39.4541
Te         41.179       46.3367       41.8978
Te         1.19609       61.1982       31.5691
Te         22.7518       0.660739       28.411
Te         50.7476       53.6923       32.5315
Te         59.7401       15.7397       58.1368
Te         25.7691       18.9016       60.1374
Te         47.7146       17.2073       57.9676
Te         3.69706       42.3108       59.1525
Te         24.3488       44.3199       59.4224
Te         42.3959       40.4602       0.783912
Te         4.50724       0.167604       59.5861
Te         25.9589       2.86055       56.3801
Te         47.4936       54.9045       53.9921
Te         4.35763       14.1158       1.8288
Te         31.8596       20.2514       7.58708
Te         49.5076       20.9707       61.3785
Te         9.86831       41.3703       3.89879
Te         30.856       37.5537       6.73784
Te         49.7477       41.8395       4.06453
Te         9.35937       1.96227       2.60795
Te         31.4426       3.57828       6.09869
Te         51.5045       57.4943       7.32907
Te         7.48979       22.3661       23.5084
Te         32.5519       23.0023       26.0616
Te         44.3118       17.1075       24.0737
Te         12.6191       37.9302       21.7325
Te         30.1052       37.5604       26.95
Te         47.9317       38.4233       20.0555
Te         10.7483       61.0812       23.9509
Te         28.1399       59.3654       23.4252
Te         51.7356       1.99903       25.2047
Te         8.42372       19.0178       45.299
Te         30.3264       16.5053       43.8321
Te         47.8639       20.7083       44.9649
Te         5.38592       40.8206       46.4905
Te         24.8895       35.4816       48.5746
Te         51.3567       35.0189       42.2101
Te         10.531       2.46912       40.0187
Te         27.8141       58.9115       45.8406
Te         46.5369       5.55252       46.0017
Te         13.6142       14.0021       16.5726
Te         42.5301       17.9747       19.7653
Te         60.38       14.5737       17.0462
Te         21.7136       33.1194       16.7766
Te         40.4636       34.1092       17.2753
Te         60.2348       37.8535       16.2166
Te         18.5261       59.7903       15.2344
Te         36.6884       53.7958       18.7283
Te         60.7229       58.7073       15.198
Te         15.5155       15.8384       32.3351
Te         35.5831       16.7844       38.446
Te         55.9661       10.6802       40.6542
Te         14.2521       33.7568       33.8353
Te         40.0861       35.125       39.9225
Te         1.32573       32.9194       36.9292
Te         21.3588       62.3483       34.948
Te         37.5989       57.1146       35.829
Te         58.5398       58.2291       38.1548
Te         19.3252       12.6883       0.350744
Te         37.1033       13.4804       0.896649
Te         59.8191       5.08002       52.0473
Te         20.9426       37.4346       57.4505
Te         36.2872       35.0209       61.6322
Te         59.7916       33.0785       58.5063
Te         19.1288       58.7095       56.4685
Te         37.5114       54.9291       57.0369
Te         55.9926       57.484       50.8904
Te         1.09927       12.9845       4.04027
Te         27.1422       15.1792       7.0321
Te         50.6455       13.3196       5.61442
Te         9.06184       44.6514       6.92692
Te         25.8562       33.7647       11.7595
Te         47.5305       38.7781       4.91472
Te         8.5419       57.3567       3.34778
Te         28.0219       62.3776       6.31385
Te         45.8301       53.4341       7.70825
Te         8.3036       16.7363       22.3851
Te         30.0708       17.9835       27.7605
Te         45.5333       16.0945       27.3764
Te         6.89178       37.4603       25.1763
Te         29.4771       31.3141       29.5619
Te         51.9639       39.0237       28.7126
Te         8.12218       51.9374       28.1827
Te         31.3447       52.0959       25.9035
Te         50.648       1.19031       28.7712
Te         6.78459       14.6871       50.3609
Te         29.6826       14.8948       47.7856
Te         47.8087       13.5184       51.94
Te         4.69737       34.5396       43.4054
Te         23.8128       36.771       45.093
Te         46.3653       37.0201       50.6092
Te         6.11606       62.1698       46.4097
Te         29.9964       52.1304       47.2267
Te         50.4383       57.2103       52.8768
Te         6.92927       20.2426       10.6997
Te         25.7621       19.9414       12.1342
Te         56.5946       17.1287       7.60599
Te         9.76747       44.3414       10.5604
Te         25.4394       44.3425       12.5495
Te         55.9404       43.9123       8.73845
Te         13.7788       1.54944       9.46155
Te         31.3303       60.9174       10.6668
Te         47.4234       60.9699       15.6608
Te         14.062       23.9746       30.9352
Te         29.6784       22.7691       33.0659
Te         51.1895       23.7659       33.3812
Te         10.2564       42.5772       34.1962
Te         26.7458       41.0879       33.6967
Te         53.1088       39.1663       25.1125
Te         8.28947       56.2353       28.3831
Te         32.3844       59.4534       23.9698
Te         44.2979       59.4488       39.3344
Te         6.83261       26.7486       56.0269
Te         32.1708       16.3969       50.7455
Te         56.0767       20.0342       52.2322
Te         11.57       46.4395       52.7181
Te         32.9325       42.9171       50.4808
Te         54.828       43.0471       54.3271
Te         9.44269       2.07185       47.3029
Te         31.0547       58.4299       47.971
Te         44.5297       4.3661       49.2406
Te         21.0733       16.7213       15.8007
Te         41.8437       13.7019       17.8508
Te         0.815426       17.6386       16.3137
Te         21.2158       41.7129       17.1924
Te         46.4816       38.1489       15.6536
Te         2.70464       42.9967       12.3659
Te         19.7839       1.13615       15.8477
Te         43.8688       59.9321       14.2687
Te         1.93784       2.95031       19.5514
Te         22.8523       15.9124       33.8713
Te         39.31       13.3741       42.5643
Te         59.4312       18.4363       39.5193
Te         18.6972       40.0287       35.0838
Te         43.8699       40.4621       38.206
Te         0.537463       39.2       38.5947
Te         24.8594       0.351668       36.0055
Te         40.0633       58.0885       38.7517
Te         60.7288       0.104824       39.8029
Te         26.6496       22.3998       60.9135
Te         43.9535       17.8194       58.5401
Te         1.99487       17.7295       56.3222
Te         21.0113       41.531       58.4195
Te         41.8719       44.7577       55.0637
Te         0.792107       36.3751       57.115
Te         21.0037       61.6143       56.0132
Te         40.1661       56.9658       61.3574
Te         0.142264       61.0578       61.7278
Te         9.44071       15.4772       15.0869
Te         38.6999       17.876       17.3179
Te         61.7686       23.9386       11.5788
Te         14.1093       44.2189       7.52052
Te         33.5829       44.3549       13.2071
Te         56.3845       34.3208       10.3401
Te         15.6438       60.7838       11.9676
Te         37.5489       1.50779       14.1234
Te         52.575       58.6421       14.9688
Te         10.5927       26.6527       33.1928
Te         38.0008       18.9897       29.3159
Te         57.4806       21.6474       32.3807
Te         12.6773       39.0226       28.1436
Te         29.2343       38.445       31.7164
Te         55.6142       39.943       33.5941
Te         11.2701       54.7791       27.2465
Te         38.9234       59.4728       31.8564
Te         51.9996       3.7411       32.5612
Te         13.2979       14.0004       49.7993
Te         35.3274       23.5164       53.296